 Entering Gaussian System, Link 0=g16
 Initial command:
 /home/support/apps/apps/gaussian/g16/l1.exe "/home/shared/scratch/Gau-74587.inp" -scrdir="/home/shared/scratch/"
 Entering Link 1 = /home/support/apps/apps/gaussian/g16/l1.exe PID=     74588.
  
 Copyright (c) 1988-2019, Gaussian, Inc.  All Rights Reserved.
  
 This is part of the Gaussian(R) 16 program.  It is based on
 the Gaussian(R) 09 system (copyright 2009, Gaussian, Inc.),
 the Gaussian(R) 03 system (copyright 2003, Gaussian, Inc.),
 the Gaussian(R) 98 system (copyright 1998, Gaussian, Inc.),
 the Gaussian(R) 94 system (copyright 1995, Gaussian, Inc.),
 the Gaussian 92(TM) system (copyright 1992, Gaussian, Inc.),
 the Gaussian 90(TM) system (copyright 1990, Gaussian, Inc.),
 the Gaussian 88(TM) system (copyright 1988, Gaussian, Inc.),
 the Gaussian 86(TM) system (copyright 1986, Carnegie Mellon
 University), and the Gaussian 82(TM) system (copyright 1983,
 Carnegie Mellon University). Gaussian is a federally registered
 trademark of Gaussian, Inc.
  
 This software contains proprietary and confidential information,
 including trade secrets, belonging to Gaussian, Inc.
  
 This software is provided under written license and may be
 used, copied, transmitted, or stored only in accord with that
 written license.
  
 The following legend is applicable only to US Government
 contracts under FAR:
  
                    RESTRICTED RIGHTS LEGEND
  
 Use, reproduction and disclosure by the US Government is
 subject to restrictions as set forth in subparagraphs (a)
 and (c) of the Commercial Computer Software - Restricted
 Rights clause in FAR 52.227-19.
  
 Gaussian, Inc.
 340 Quinnipiac St., Bldg. 40, Wallingford CT 06492
  
  
 ---------------------------------------------------------------
 Warning -- This program may not be used in any manner that
 competes with the business of Gaussian, Inc. or will provide
 assistance to any competitor of Gaussian, Inc.  The licensee
 of this program is prohibited from giving any competitor of
 Gaussian, Inc. access to this program.  By using this program,
 the user acknowledges that Gaussian, Inc. is engaged in the
 business of creating and licensing software in the field of
 computational chemistry and represents and warrants to the
 licensee that it is not a competitor of Gaussian, Inc. and that
 it will not use this program in any manner prohibited above.
 ---------------------------------------------------------------
  

 Cite this work as:
 Gaussian 16, Revision C.01,
 M. J. Frisch, G. W. Trucks, H. B. Schlegel, G. E. Scuseria, 
 M. A. Robb, J. R. Cheeseman, G. Scalmani, V. Barone, 
 G. A. Petersson, H. Nakatsuji, X. Li, M. Caricato, A. V. Marenich, 
 J. Bloino, B. G. Janesko, R. Gomperts, B. Mennucci, H. P. Hratchian, 
 J. V. Ortiz, A. F. Izmaylov, J. L. Sonnenberg, D. Williams-Young, 
 F. Ding, F. Lipparini, F. Egidi, J. Goings, B. Peng, A. Petrone, 
 T. Henderson, D. Ranasinghe, V. G. Zakrzewski, J. Gao, N. Rega, 
 G. Zheng, W. Liang, M. Hada, M. Ehara, K. Toyota, R. Fukuda, 
 J. Hasegawa, M. Ishida, T. Nakajima, Y. Honda, O. Kitao, H. Nakai, 
 T. Vreven, K. Throssell, J. A. Montgomery, Jr., J. E. Peralta, 
 F. Ogliaro, M. J. Bearpark, J. J. Heyd, E. N. Brothers, K. N. Kudin, 
 V. N. Staroverov, T. A. Keith, R. Kobayashi, J. Normand, 
 K. Raghavachari, A. P. Rendell, J. C. Burant, S. S. Iyengar, 
 J. Tomasi, M. Cossi, J. M. Millam, M. Klene, C. Adamo, R. Cammi, 
 J. W. Ochterski, R. L. Martin, K. Morokuma, O. Farkas, 
 J. B. Foresman, and D. J. Fox, Gaussian, Inc., Wallingford CT, 2019.
 
 ******************************************
 Gaussian 16:  ES64L-G16RevC.01  3-Jul-2019
                14-Mar-2023 
 ******************************************
 %chk=AuC=Ob.chk
 %nprocshared=40
 Will use up to   40 processors via shared memory.
 %mem=80GB
 ---------------------------------------------------------------------
 #p guess=read rwb97xd/gen pseudo=read scf=xqc pop=nbo7read output=wfn
 ---------------------------------------------------------------------
 1/38=1,163=2,172=1/1;
 2/12=2,17=6,18=5,40=1/2;
 3/5=7,11=2,16=1,17=8,25=1,30=1,74=-58,116=1/1,2,3;
 4/5=1/1;
 5/5=2,8=3,13=1,38=6/2,8;
 6/7=2,8=2,9=2,10=2,28=1,40=2,113=1,114=1,124=2103/1,12;
 99/5=1,6=100,9=1/99;
 Leave Link    1 at Tue Mar 14 09:25:48 2023, MaxMem= 10737418240 cpu:               2.3 elap:               0.1
 (Enter /home/support/apps/apps/gaussian/g16/l101.exe)
 -------------
 continue calc
 -------------
 Symbolic Z-matrix:
 Charge =  0 Multiplicity = 1
 C                     2.18621   2.80885   0.22709 
 C                     3.37854   2.54158  -0.43281 
 C                     3.54038   1.31048  -1.0535 
 C                    -1.38821   1.68228   0.2596 
 C                    -2.47743   2.56402   0.18806 
 C                    -3.63747   2.18747  -0.46752 
 C                    -3.71864   0.92322  -1.04668 
 C                    -2.66067   0.02443  -0.94159 
 C                    -1.49229   0.39919  -0.28411 
 H                     4.16707   3.28567  -0.46367 
 H                    -4.47328   2.8757   -0.53244 
 H                     4.4472    1.05593  -1.58799 
 H                     1.99846   3.7501    0.72854 
 H                    -2.7632   -0.97336  -1.34967 
 H                    -4.61958   0.62222  -1.57183 
 H                    -2.3802    3.54524   0.64037 
 Au                    0.02759  -0.90512   0.00809 
 Cl                    1.87787  -2.41096   0.36675 
 C                     1.18637   1.84485   0.24659 
 N                     1.37323   0.64185  -0.32491 
 C                     2.52488   0.37197  -0.96245 
 H                     2.62905  -0.62703  -1.36553 
 Cl                   -1.48692  -2.58067   0.4629 
 C                    -0.14747   2.23702   0.85412 
 O                    -0.15109   3.12037   1.6891 
 
 ITRead=  0  0  0  0  0  0  0  0  0  0  0  0  0  0  0  0  0  0  0  0
 ITRead=  0  0  0  0  0
 MicOpt= -1 -1 -1 -1 -1 -1 -1 -1 -1 -1 -1 -1 -1 -1 -1 -1 -1 -1 -1 -1
 MicOpt= -1 -1 -1 -1 -1
 NAtoms=     25 NQM=       25 NQMF=       0 NMMI=      0 NMMIF=      0
                NMic=       0 NMicF=      0.
                    Isotopes and Nuclear Properties:
 (Nuclear quadrupole moments (NQMom) in fm**2, nuclear magnetic moments (NMagM)
  in nuclear magnetons)

  Atom         1           2           3           4           5           6           7           8           9          10
 IAtWgt=          12          12          12          12          12          12          12          12          12           1
 AtmWgt=  12.0000000  12.0000000  12.0000000  12.0000000  12.0000000  12.0000000  12.0000000  12.0000000  12.0000000   1.0078250
 NucSpn=           0           0           0           0           0           0           0           0           0           1
 AtZEff=  -0.0000000  -0.0000000  -0.0000000  -0.0000000  -0.0000000  -0.0000000  -0.0000000  -0.0000000  -0.0000000  -0.0000000
 NQMom=    0.0000000   0.0000000   0.0000000   0.0000000   0.0000000   0.0000000   0.0000000   0.0000000   0.0000000   0.0000000
 NMagM=    0.0000000   0.0000000   0.0000000   0.0000000   0.0000000   0.0000000   0.0000000   0.0000000   0.0000000   2.7928460
 AtZNuc=   6.0000000   6.0000000   6.0000000   6.0000000   6.0000000   6.0000000   6.0000000   6.0000000   6.0000000   1.0000000

  Atom        11          12          13          14          15          16          17          18          19          20
 IAtWgt=           1           1           1           1           1           1         197          35          12          14
 AtmWgt=   1.0078250   1.0078250   1.0078250   1.0078250   1.0078250   1.0078250 196.9666000  34.9688527  12.0000000  14.0030740
 NucSpn=           1           1           1           1           1           1           3           3           0           2
 AtZEff=  -0.0000000  -0.0000000  -0.0000000  -0.0000000  -0.0000000  -0.0000000  -0.0000000  -0.0000000  -0.0000000  -0.0000000
 NQMom=    0.0000000   0.0000000   0.0000000   0.0000000   0.0000000   0.0000000  54.7000000  -8.1650000   0.0000000   2.0440000
 NMagM=    2.7928460   2.7928460   2.7928460   2.7928460   2.7928460   2.7928460   0.1481590   0.8218740   0.0000000   0.4037610
 AtZNuc=   1.0000000   1.0000000   1.0000000   1.0000000   1.0000000   1.0000000  79.0000000  17.0000000   6.0000000   7.0000000

  Atom        21          22          23          24          25
 IAtWgt=          12           1          35          12          16
 AtmWgt=  12.0000000   1.0078250  34.9688527  12.0000000  15.9949146
 NucSpn=           0           1           3           0           0
 AtZEff=  -0.0000000  -0.0000000  -0.0000000  -0.0000000  -0.0000000
 NQMom=    0.0000000   0.0000000  -8.1650000   0.0000000   0.0000000
 NMagM=    0.0000000   2.7928460   0.8218740   0.0000000   0.0000000
 AtZNuc=   6.0000000   1.0000000  17.0000000   6.0000000   8.0000000
 Leave Link  101 at Tue Mar 14 09:25:49 2023, MaxMem= 10737418240 cpu:               1.9 elap:               0.1
 (Enter /home/support/apps/apps/gaussian/g16/l202.exe)
                          Input orientation:                          
 ---------------------------------------------------------------------
 Center     Atomic      Atomic             Coordinates (Angstroms)
 Number     Number       Type             X           Y           Z
 ---------------------------------------------------------------------
      1          6           0        2.186212    2.808852    0.227090
      2          6           0        3.378545    2.541580   -0.432809
      3          6           0        3.540383    1.310483   -1.053495
      4          6           0       -1.388206    1.682279    0.259595
      5          6           0       -2.477433    2.564015    0.188057
      6          6           0       -3.637471    2.187469   -0.467516
      7          6           0       -3.718638    0.923217   -1.046680
      8          6           0       -2.660667    0.024432   -0.941591
      9          6           0       -1.492293    0.399190   -0.284110
     10          1           0        4.167075    3.285665   -0.463668
     11          1           0       -4.473280    2.875697   -0.532441
     12          1           0        4.447202    1.055933   -1.587989
     13          1           0        1.998455    3.750104    0.728543
     14          1           0       -2.763201   -0.973361   -1.349667
     15          1           0       -4.619581    0.622217   -1.571826
     16          1           0       -2.380204    3.545236    0.640365
     17         79           0        0.027587   -0.905123    0.008088
     18         17           0        1.877868   -2.410964    0.366754
     19          6           0        1.186366    1.844850    0.246592
     20          7           0        1.373228    0.641846   -0.324905
     21          6           0        2.524880    0.371967   -0.962454
     22          1           0        2.629045   -0.627033   -1.365530
     23         17           0       -1.486923   -2.580670    0.462896
     24          6           0       -0.147471    2.237018    0.854118
     25          8           0       -0.151094    3.120373    1.689100
 ---------------------------------------------------------------------
                    Distance matrix (angstroms):
                    1          2          3          4          5
     1  C    0.000000
     2  C    1.388726   0.000000
     3  C    2.391398   1.388180   0.000000
     4  C    3.747891   4.892825   5.114042   0.000000
     5  C    4.670231   5.888842   6.271117   1.403208   0.000000
     6  C    5.897786   7.025032   7.254934   2.417251   1.384648
     7  C    6.328141   7.305200   7.269347   2.777309   2.399455
     8  C    5.710608   6.562543   6.333993   2.410490   2.785527
     9  C    4.427098   5.323252   5.172063   1.397414   2.424853
    10  H    2.151352   1.084617   2.154526   5.827101   6.715282
    11  H    6.702999   7.859562   8.181698   3.401360   2.144684
    12  H    3.388113   2.164166   1.082959   6.152874   7.306108
    13  H    1.082896   2.171156   3.391895   3.995658   4.661814
    14  H    6.425573   7.135579   6.711098   3.395992   3.867724
    15  H    7.371315   8.303694   8.205327   3.862592   3.384755
    16  H    4.643836   5.943250   6.551079   2.144681   1.084818
    17  Au   4.301306   4.827325   4.286678   2.960131   4.282807
    18  Cl   5.230780   5.236318   4.316275   5.237687   6.614454
    19  C    1.389018   2.398472   2.741746   2.579732   3.734173
    20  N    2.379403   2.764404   2.382117   3.008265   4.334219
    21  C    2.732786   2.390918   1.385766   4.303785   5.581387
    22  H    3.812853   3.387009   2.163763   4.910423   6.218725
    23  Cl   6.526444   7.121272   6.535619   4.268936   5.246373
    24  C    2.483190   3.765864   4.254142   1.483447   2.445258
    25  O    2.774440   4.158828   4.942118   2.375299   2.823919
                    6          7          8          9         10
     6  C    0.000000
     7  C    1.392965   0.000000
     8  C    2.420253   1.392178   0.000000
     9  C    2.798815   2.410960   1.392057   0.000000
    10  H    7.881433   8.252608   7.581696   6.355504   0.000000
    11  H    1.084643   2.155482   3.403334   3.883431   8.650349
    12  H    8.240010   8.184838   7.211354   6.116291   2.512822
    13  H    5.969594   6.620261   6.194949   4.943623   2.517932
    14  H    3.396084   2.145150   1.082880   2.152792   8.182483
    15  H    2.152685   1.085393   2.142869   3.389378   9.248097
    16  H    2.156769   3.393009   3.870052   3.397153   6.644782
    17  Au   4.819022   4.299949   2.998778   2.024018   5.909367
    18  Cl   7.229146   6.665991   5.314247   4.436054   6.195293
    19  C    4.888429   5.155679   4.418751   3.089788   3.386007
    20  N    5.245607   5.150459   4.127204   2.876066   3.848976
    21  C    6.443259   6.268372   5.197222   4.074134   3.381601
    22  H    6.927992   6.542020   5.346511   4.382697   4.299779
    23  Cl   5.312784   4.420022   3.183837   3.072070   8.200006
    24  C    3.732194   4.253509   3.799508   2.545922   4.631579
    25  O    4.204299   5.003934   4.775285   3.619007   4.827869
                   11         12         13         14         15
    11  H    0.000000
    12  H    9.165191   0.000000
    13  H    6.651167   4.315233   0.000000
    14  H    4.290393   7.494314   7.021641   0.000000
    15  H    2.485940   9.077165   7.672925   2.457920   0.000000
    16  H    2.490928   7.601030   4.384336   4.952235   4.295653
    17  Au   5.902929   5.091778   5.106321   3.104296   5.140532
    18  Cl   8.312305   4.737285   6.172859   5.152895   7.427996
    19  C    5.805268   3.823758   2.126443   5.107782   6.205683
    20  N    6.262174   3.349054   3.340947   4.557310   6.121189
    21  C    7.444986   2.134110   3.814237   5.470251   7.174767
    22  H    7.962799   2.487480   4.893068   5.403380   7.358380
    23  Cl   6.299283   7.255677   7.231675   2.738195   4.920582
    24  C    4.587274   5.335716   2.628725   4.690975   5.337842
    25  O    4.865840   6.012117   2.437169   5.728513   6.069744
                   16         17         18         19         20
    16  H    0.000000
    17  Au   5.099307   0.000000
    18  Cl   7.326825   2.412413   0.000000
    19  C    3.970742   2.993661   4.313301   0.000000
    20  N    4.842486   2.077197   3.170600   1.344896   0.000000
    21  C    6.057930   2.968060   3.151210   2.328690   1.343728
    22  H    6.820852   2.954952   2.597592   3.284884   2.066405
    23  Cl   6.193236   2.303920   3.370439   5.174794   4.380149
    24  C    2.596579   3.258752   5.093453   1.517236   2.499439
    25  O    2.499857   4.366045   6.038292   2.344480   3.538767
                   21         22         23         24         25
    21  C    0.000000
    22  H    1.082276   0.000000
    23  Cl   5.181144   4.909280   0.000000
    24  C    3.730926   4.564939   5.015706   0.000000
    25  O    4.663187   5.577005   5.982467   1.215535   0.000000
 Stoichiometry    C12H8AuCl2NO
 Framework group  C1[X(C12H8AuCl2NO)]
 Deg. of freedom    69
 Full point group                 C1      NOp   1
 Largest Abelian subgroup         C1      NOp   1
 Largest concise Abelian subgroup C1      NOp   1
                         Standard orientation:                         
 ---------------------------------------------------------------------
 Center     Atomic      Atomic             Coordinates (Angstroms)
 Number     Number       Type             X           Y           Z
 ---------------------------------------------------------------------
      1          6           0        2.186209    2.808854    0.227090
      2          6           0        3.378542    2.541583   -0.432809
      3          6           0        3.540382    1.310487   -1.053495
      4          6           0       -1.388208    1.682278    0.259595
      5          6           0       -2.477436    2.564013    0.188057
      6          6           0       -3.637473    2.187465   -0.467516
      7          6           0       -3.718639    0.923213   -1.046680
      8          6           0       -2.660667    0.024429   -0.941591
      9          6           0       -1.492294    0.399189   -0.284110
     10          1           0        4.167072    3.285669   -0.463668
     11          1           0       -4.473283    2.875693   -0.532441
     12          1           0        4.447201    1.055938   -1.587989
     13          1           0        1.998451    3.750106    0.728543
     14          1           0       -2.763200   -0.973364   -1.349667
     15          1           0       -4.619582    0.622213   -1.571826
     16          1           0       -2.380208    3.545234    0.640365
     17         79           0        0.027588   -0.905123    0.008088
     18         17           0        1.877870   -2.410962    0.366754
     19          6           0        1.186364    1.844851    0.246592
     20          7           0        1.373227    0.641847   -0.324905
     21          6           0        2.524879    0.371970   -0.962454
     22          1           0        2.629045   -0.627030   -1.365530
     23         17           0       -1.486921   -2.580671    0.462896
     24          6           0       -0.147473    2.237018    0.854118
     25          8           0       -0.151097    3.120373    1.689100
 ---------------------------------------------------------------------
 Rotational constants (GHZ):           0.3575488           0.3514225           0.1957368
 Leave Link  202 at Tue Mar 14 09:25:49 2023, MaxMem= 10737418240 cpu:               0.4 elap:               0.0
 (Enter /home/support/apps/apps/gaussian/g16/l301.exe)
 General basis read from cards:  (5D, 7F)
 Centers:      17
 lanl2dz
 F 1 1.0
     Exponent=  1.0500000000D+00 Coefficients=  1.0000000000D+00
 ****
 Centers:      10     11     12     13     14     15     16     22
 6-31g(d,p)
 ****
 Centers:       1      2      3      4      5      6      7      8      9     19
 Centers:      21     24
 6-31g(d)
 ****
 Centers:      18     23
 6-31+g(d)
 ****
 Centers:      20
 6-31+g(d)
 ****
 Centers:      25
 6-31+g(d)
 ****
 ======================================================================================================
                                       Pseudopotential Parameters
 ======================================================================================================
  Center     Atomic      Valence      Angular      Power
  Number     Number     Electrons     Momentum     of R      Exponent        Coefficient   SO-Coeffient
 ======================================================================================================
    1          6
                                   No pseudopotential on this center.
    2          6
                                   No pseudopotential on this center.
    3          6
                                   No pseudopotential on this center.
    4          6
                                   No pseudopotential on this center.
    5          6
                                   No pseudopotential on this center.
    6          6
                                   No pseudopotential on this center.
    7          6
                                   No pseudopotential on this center.
    8          6
                                   No pseudopotential on this center.
    9          6
                                   No pseudopotential on this center.
   10          1
                                   No pseudopotential on this center.
   11          1
                                   No pseudopotential on this center.
   12          1
                                   No pseudopotential on this center.
   13          1
                                   No pseudopotential on this center.
   14          1
                                   No pseudopotential on this center.
   15          1
                                   No pseudopotential on this center.
   16          1
                                   No pseudopotential on this center.
   17         79           19
                                      G and up 
                                                     1      622.6287956      -60.00000000    0.00000000
                                                     2      136.2843607     -555.52923120    0.00000000
                                                     2       33.1549781     -168.00197850    0.00000000
                                                     2        9.9894895      -63.03998750    0.00000000
                                                     2        3.0481312       -4.25166810    0.00000000
                                      S - G
                                                     0      194.7374304        3.00000000    0.00000000
                                                     1      351.5327447       38.60208800    0.00000000
                                                     2      122.3270402      864.83707270    0.00000000
                                                     2       32.0914617      374.99355200    0.00000000
                                                     2        5.2451812      289.79101000    0.00000000
                                                     2        4.4916223     -152.45327730    0.00000000
                                      P - G
                                                     0      420.6158801        2.00000000    0.00000000
                                                     1      109.4417815       73.88856250    0.00000000
                                                     2       34.1714280      326.67298720    0.00000000
                                                     2        5.9879750      126.58145910    0.00000000
                                      D - G
                                                     0      219.2666158        3.00000000    0.00000000
                                                     1      122.7297786       55.67931490    0.00000000
                                                     2       63.1063369      449.19873350    0.00000000
                                                     2       18.3684520      215.02690910    0.00000000
                                                     2        4.4972844       64.08409950    0.00000000
                                      F - G
                                                     0      108.5506037        4.00000000    0.00000000
                                                     1       56.4795527       51.80653350    0.00000000
                                                     2       29.2069159      231.21831130    0.00000000
                                                     2        9.5440543      119.00473860    0.00000000
                                                     2        2.8965118       15.34241880    0.00000000
   18         17
                                   No pseudopotential on this center.
   19          6
                                   No pseudopotential on this center.
   20          7
                                   No pseudopotential on this center.
   21          6
                                   No pseudopotential on this center.
   22          1
                                   No pseudopotential on this center.
   23         17
                                   No pseudopotential on this center.
   24          6
                                   No pseudopotential on this center.
   25          8
                                   No pseudopotential on this center.
 ======================================================================================================
 Ernie: Thresh=  0.10000D-02 Tol=  0.10000D-05 Strict=F.
 Ernie:  1 primitive shells out of 250 were deleted.
 There are   338 symmetry adapted cartesian basis functions of A   symmetry.
 There are   317 symmetry adapted basis functions of A   symmetry.
   317 basis functions,   621 primitive gaussians,   338 cartesian basis functions
    74 alpha electrons       74 beta electrons
       nuclear repulsion energy      1587.5897838562 Hartrees.
 IExCor= 4639 DFT=T Ex+Corr=wB97XD ExCW=0 ScaHFX=  1.000000
 ScaDFX=  1.000000  1.000000  1.000000  1.000000 ScalE2=  1.000000  1.000000
 IRadAn=      5 IRanWt=     -1 IRanGd=            0 ICorTp=0 IEmpDi=121
 HFx  wShort=  0.000000 wLong=  0.200000 cFull=  0.222036 cShort=  0.000000 cLong=  0.777964
 DFx  wShort=  0.000000 wLong=  0.200000 cFull=  0.000000 cShort=  0.000000 cLong=  1.000000
 NAtoms=   25 NActive=   25 NUniq=   25 SFac= 1.00D+00 NAtFMM=   60 NAOKFM=F Big=F
 Integral buffers will be    131072 words long.
 Raffenetti 2 integral format.
 Two-electron integral symmetry is turned on.
 R6Disp:  Grimme-D2 Dispersion energy=       -0.0213946114 Hartrees.
 Nuclear repulsion after empirical dispersion term =     1587.5683892447 Hartrees.
 Leave Link  301 at Tue Mar 14 09:25:49 2023, MaxMem= 10737418240 cpu:               1.5 elap:               0.1
 (Enter /home/support/apps/apps/gaussian/g16/l302.exe)
 NPDir=0 NMtPBC=     1 NCelOv=     1 NCel=       1 NClECP=     1 NCelD=      1
         NCelK=      1 NCelE2=     1 NClLst=     1 CellRange=     0.0.
 One-electron integrals computed using PRISM.
 One-electron integral symmetry used in STVInt
   1 Symmetry operations used in ECPInt.
 ECPInt:  NShTT=    5356 NPrTT=   31478 LenC2=    4793 LenP2D=   17824.
 LDataN:  DoStor=T MaxTD1= 7 Len=  274
 NBasis=   317 RedAO= T EigKep=  5.16D-04  NBF=   317
 NBsUse=   317 1.00D-06 EigRej= -1.00D+00 NBFU=   317
 Precomputing XC quadrature grid using
 IXCGrd= 4 IRadAn=           5 IRanWt=          -1 IRanGd=           0 AccXCQ= 0.00D+00.
 Defaulting to unpruned grid for atomic number  79.
 Generated NRdTot=       0 NPtTot=           0 NUsed=           0 NTot=          32
 NSgBfM=   336   336   336   336   336 MxSgAt=    25 MxSgA2=    25.
 Leave Link  302 at Tue Mar 14 09:25:49 2023, MaxMem= 10737418240 cpu:              19.0 elap:               0.5
 (Enter /home/support/apps/apps/gaussian/g16/l303.exe)
 DipDrv:  MaxL=1.
 Leave Link  303 at Tue Mar 14 09:25:49 2023, MaxMem= 10737418240 cpu:               1.3 elap:               0.1
 (Enter /home/support/apps/apps/gaussian/g16/l401.exe)
 Initial guess from the checkpoint file:  "AuC=Ob.chk"
 B after Tr=     0.000000    0.000000   -0.000000
         Rot=    1.000000    0.000000   -0.000000   -0.000001 Ang=  -0.00 deg.
 Guess basis will be translated and rotated to current coordinates.
 JPrj=2 DoOrth=T DoCkMO=T.
 Leave Link  401 at Tue Mar 14 09:25:50 2023, MaxMem= 10737418240 cpu:              12.5 elap:               0.4
 (Enter /home/support/apps/apps/gaussian/g16/l502.exe)
 Integral symmetry usage will be decided dynamically.
 Closed shell SCF:
 Using DIIS extrapolation, IDIIS=  1040.
 NGot= 10737418240 LenX= 10737172268 LenY= 10737057583
 Requested convergence on RMS density matrix=1.00D-08 within  32 cycles.
 Requested convergence on MAX density matrix=1.00D-06.
 Requested convergence on             energy=1.00D-06.
 No special actions if energy rises.
 Fock matrices will be formed incrementally for  20 cycles.

 Cycle   1  Pass 1  IDiag  1:
 FoFJK:  IHMeth= 1 ICntrl=       0 DoSepK=T KAlg= 0 I1Cent=           0 FoldK=F
 IRaf=         1 NMat=       1 IRICut=       1 DoRegI=T DoRafI=F ISym2E= 0 IDoP0=0 IntGTp=1.
 FoFCou: FMM=F IPFlag=           0 FMFlag=      100000 FMFlg1=           0
         NFxFlg=           0 DoJE=T BraDBF=F KetDBF=F FulRan=T
         wScrn=  0.000000 ICntrl=       500 IOpCl=  0 I1Cent=           0 NGrid=           0
         NMat0=    1 NMatS0=      1 NMatT0=    0 NMatD0=    1 NMtDS0=    0 NMtDT0=    0
 Symmetry not used in FoFCou.
 Defaulting to unpruned grid for atomic number  79.
 Defaulting to unpruned grid for atomic number  79.
 Defaulting to unpruned grid for atomic number  79.
 Defaulting to unpruned grid for atomic number  79.
 Defaulting to unpruned grid for atomic number  79.
 Defaulting to unpruned grid for atomic number  79.
 Defaulting to unpruned grid for atomic number  79.
 Defaulting to unpruned grid for atomic number  79.
 Defaulting to unpruned grid for atomic number  79.
 Defaulting to unpruned grid for atomic number  79.
 Defaulting to unpruned grid for atomic number  79.
 Defaulting to unpruned grid for atomic number  79.
 Defaulting to unpruned grid for atomic number  79.
 Defaulting to unpruned grid for atomic number  79.
 Defaulting to unpruned grid for atomic number  79.
 Defaulting to unpruned grid for atomic number  79.
 Defaulting to unpruned grid for atomic number  79.
 Defaulting to unpruned grid for atomic number  79.
 Defaulting to unpruned grid for atomic number  79.
 Defaulting to unpruned grid for atomic number  79.
 Defaulting to unpruned grid for atomic number  79.
 Defaulting to unpruned grid for atomic number  79.
 Defaulting to unpruned grid for atomic number  79.
 Defaulting to unpruned grid for atomic number  79.
 Defaulting to unpruned grid for atomic number  79.
 Defaulting to unpruned grid for atomic number  79.
 Defaulting to unpruned grid for atomic number  79.
 Defaulting to unpruned grid for atomic number  79.
 Defaulting to unpruned grid for atomic number  79.
 Defaulting to unpruned grid for atomic number  79.
 Defaulting to unpruned grid for atomic number  79.
 Defaulting to unpruned grid for atomic number  79.
 Defaulting to unpruned grid for atomic number  79.
 Defaulting to unpruned grid for atomic number  79.
 Defaulting to unpruned grid for atomic number  79.
 Defaulting to unpruned grid for atomic number  79.
 Defaulting to unpruned grid for atomic number  79.
 Defaulting to unpruned grid for atomic number  79.
 Defaulting to unpruned grid for atomic number  79.
 Defaulting to unpruned grid for atomic number  79.
 E= -1647.72704166645    
 DIIS: error= 3.11D-08 at cycle   1 NSaved=   1.
 NSaved= 1 IEnMin= 1 EnMin= -1647.72704166645     IErMin= 1 ErrMin= 3.11D-08
 ErrMax= 3.11D-08  0.00D+00 EMaxC= 1.00D-01 BMatC= 1.45D-12 BMatP= 1.45D-12
 IDIUse=1 WtCom= 1.00D+00 WtEn= 0.00D+00
 Coeff-Com:  0.100D+01
 Coeff:      0.100D+01
 Gap=     0.281 Goal=   None    Shift=    0.000
 RMSDP=8.25D-09 MaxDP=6.09D-07              OVMax= 3.43D-07

 SCF Done:  E(RwB97XD) =  -1647.72704167     A.U. after    1 cycles
            NFock=  1  Conv=0.82D-08     -V/T= 2.0635
 KE= 1.549371380114D+03 PE=-7.018344383949D+03 EE= 2.233677572924D+03
 Leave Link  502 at Tue Mar 14 09:25:53 2023, MaxMem= 10737418240 cpu:             116.4 elap:               2.9
 (Enter /home/support/apps/apps/gaussian/g16/l508.exe)
 QCSCF skips out because SCF is already converged.
 Leave Link  508 at Tue Mar 14 09:25:53 2023, MaxMem= 10737418240 cpu:               0.1 elap:               0.0
 (Enter /home/support/apps/apps/gaussian/g16/l601.exe)
 Copying SCF densities to generalized density rwf, IOpCl= 0 IROHF=0.

 **********************************************************************

            Population analysis using the SCF Density.

 **********************************************************************

 Orbital symmetries:
       Occupied  (A) (A) (A) (A) (A) (A) (A) (A) (A) (A) (A) (A)
                 (A) (A) (A) (A) (A) (A) (A) (A) (A) (A) (A) (A)
                 (A) (A) (A) (A) (A) (A) (A) (A) (A) (A) (A) (A)
                 (A) (A) (A) (A) (A) (A) (A) (A) (A) (A) (A) (A)
                 (A) (A) (A) (A) (A) (A) (A) (A) (A) (A) (A) (A)
                 (A) (A) (A) (A) (A) (A) (A) (A) (A) (A) (A) (A)
                 (A) (A)
       Virtual   (A) (A) (A) (A) (A) (A) (A) (A) (A) (A) (A) (A)
                 (A) (A) (A) (A) (A) (A) (A) (A) (A) (A) (A) (A)
                 (A) (A) (A) (A) (A) (A) (A) (A) (A) (A) (A) (A)
                 (A) (A) (A) (A) (A) (A) (A) (A) (A) (A) (A) (A)
                 (A) (A) (A) (A) (A) (A) (A) (A) (A) (A) (A) (A)
                 (A) (A) (A) (A) (A) (A) (A) (A) (A) (A) (A) (A)
                 (A) (A) (A) (A) (A) (A) (A) (A) (A) (A) (A) (A)
                 (A) (A) (A) (A) (A) (A) (A) (A) (A) (A) (A) (A)
                 (A) (A) (A) (A) (A) (A) (A) (A) (A) (A) (A) (A)
                 (A) (A) (A) (A) (A) (A) (A) (A) (A) (A) (A) (A)
                 (A) (A) (A) (A) (A) (A) (A) (A) (A) (A) (A) (A)
                 (A) (A) (A) (A) (A) (A) (A) (A) (A) (A) (A) (A)
                 (A) (A) (A) (A) (A) (A) (A) (A) (A) (A) (A) (A)
                 (A) (A) (A) (A) (A) (A) (A) (A) (A) (A) (A) (A)
                 (A) (A) (A) (A) (A) (A) (A) (A) (A) (A) (A) (A)
                 (A) (A) (A) (A) (A) (A) (A) (A) (A) (A) (A) (A)
                 (A) (A) (A) (A) (A) (A) (A) (A) (A) (A) (A) (A)
                 (A) (A) (A) (A) (A) (A) (A) (A) (A) (A) (A) (A)
                 (A) (A) (A) (A) (A) (A) (A) (A) (A) (A) (A) (A)
                 (A) (A) (A) (A) (A) (A) (A) (A) (A) (A) (A) (A)
                 (A) (A) (A)
 The electronic state is 1-A.
 Alpha  occ. eigenvalues -- -101.66450-101.63244 -19.30553 -14.57531 -10.43553
 Alpha  occ. eigenvalues --  -10.40973 -10.40088 -10.37729 -10.36637 -10.36532
 Alpha  occ. eigenvalues --  -10.35529 -10.33911 -10.32942 -10.32688 -10.32196
 Alpha  occ. eigenvalues --  -10.32125  -9.54777  -9.51613  -7.29511  -7.28672
 Alpha  occ. eigenvalues --   -7.28606  -7.26133  -7.25609  -7.25567  -4.38861
 Alpha  occ. eigenvalues --   -2.52183  -2.51908  -2.49219  -1.19235  -1.13634
 Alpha  occ. eigenvalues --   -0.98981  -0.97241  -0.94182  -0.89079  -0.87973
 Alpha  occ. eigenvalues --   -0.86750  -0.84361  -0.81321  -0.79551  -0.75736
 Alpha  occ. eigenvalues --   -0.72594  -0.70620  -0.66634  -0.65130  -0.62532
 Alpha  occ. eigenvalues --   -0.60381  -0.59645  -0.59147  -0.58381  -0.56953
 Alpha  occ. eigenvalues --   -0.56186  -0.54729  -0.53570  -0.52606  -0.51909
 Alpha  occ. eigenvalues --   -0.51573  -0.51195  -0.49821  -0.49536  -0.47817
 Alpha  occ. eigenvalues --   -0.46720  -0.45824  -0.44119  -0.43220  -0.42359
 Alpha  occ. eigenvalues --   -0.39945  -0.38468  -0.37507  -0.36620  -0.35726
 Alpha  occ. eigenvalues --   -0.35251  -0.34762  -0.34053  -0.33507
 Alpha virt. eigenvalues --   -0.05454  -0.04529  -0.01607   0.02376   0.04014
 Alpha virt. eigenvalues --    0.06374   0.07614   0.08514   0.09334   0.09749
 Alpha virt. eigenvalues --    0.14090   0.14869   0.15418   0.15891   0.16495
 Alpha virt. eigenvalues --    0.17127   0.17691   0.18177   0.18732   0.19084
 Alpha virt. eigenvalues --    0.20136   0.20543   0.20864   0.21968   0.22479
 Alpha virt. eigenvalues --    0.22822   0.23246   0.23511   0.24183   0.24960
 Alpha virt. eigenvalues --    0.25983   0.26163   0.27081   0.27817   0.29048
 Alpha virt. eigenvalues --    0.29962   0.30415   0.30866   0.31317   0.32553
 Alpha virt. eigenvalues --    0.33845   0.35195   0.37365   0.37768   0.38428
 Alpha virt. eigenvalues --    0.39377   0.39921   0.42866   0.45076   0.45724
 Alpha virt. eigenvalues --    0.48637   0.50285   0.54919   0.55158   0.55982
 Alpha virt. eigenvalues --    0.56743   0.58756   0.60512   0.61785   0.62526
 Alpha virt. eigenvalues --    0.63077   0.63725   0.64331   0.65894   0.66135
 Alpha virt. eigenvalues --    0.66812   0.67167   0.68399   0.68867   0.69051
 Alpha virt. eigenvalues --    0.70320   0.71080   0.71477   0.73080   0.73451
 Alpha virt. eigenvalues --    0.74266   0.75478   0.76167   0.76813   0.77499
 Alpha virt. eigenvalues --    0.78796   0.80512   0.82049   0.82799   0.84269
 Alpha virt. eigenvalues --    0.84681   0.85741   0.86456   0.87263   0.88652
 Alpha virt. eigenvalues --    0.89452   0.89934   0.90141   0.90958   0.91855
 Alpha virt. eigenvalues --    0.92732   0.93459   0.94470   0.95729   0.96771
 Alpha virt. eigenvalues --    0.98716   1.01017   1.01724   1.02302   1.03296
 Alpha virt. eigenvalues --    1.03443   1.04451   1.05393   1.06176   1.06926
 Alpha virt. eigenvalues --    1.07429   1.08665   1.09798   1.10943   1.11925
 Alpha virt. eigenvalues --    1.12937   1.13171   1.14496   1.16749   1.18903
 Alpha virt. eigenvalues --    1.20315   1.20989   1.21910   1.22586   1.24456
 Alpha virt. eigenvalues --    1.24996   1.26458   1.29290   1.30119   1.31675
 Alpha virt. eigenvalues --    1.31798   1.33110   1.34686   1.35084   1.36491
 Alpha virt. eigenvalues --    1.37422   1.41115   1.42850   1.43370   1.44966
 Alpha virt. eigenvalues --    1.46425   1.47392   1.47559   1.50475   1.50942
 Alpha virt. eigenvalues --    1.55771   1.56330   1.56984   1.60188   1.65133
 Alpha virt. eigenvalues --    1.68177   1.74509   1.78130   1.78749   1.80765
 Alpha virt. eigenvalues --    1.82306   1.83718   1.85753   1.86994   1.90051
 Alpha virt. eigenvalues --    1.91761   1.92837   1.95478   1.95508   1.98595
 Alpha virt. eigenvalues --    1.99011   1.99847   2.01470   2.02084   2.02528
 Alpha virt. eigenvalues --    2.02943   2.03715   2.05105   2.06117   2.06598
 Alpha virt. eigenvalues --    2.07130   2.08896   2.10269   2.11493   2.12640
 Alpha virt. eigenvalues --    2.14082   2.15732   2.17535   2.19038   2.20746
 Alpha virt. eigenvalues --    2.24796   2.26748   2.30077   2.33361   2.34567
 Alpha virt. eigenvalues --    2.35785   2.36649   2.38769   2.41287   2.41894
 Alpha virt. eigenvalues --    2.42666   2.43161   2.45438   2.46881   2.47964
 Alpha virt. eigenvalues --    2.49843   2.50730   2.51800   2.52934   2.54810
 Alpha virt. eigenvalues --    2.58656   2.60528   2.61233   2.61914   2.63140
 Alpha virt. eigenvalues --    2.64157   2.65022   2.66164   2.68469   2.71899
 Alpha virt. eigenvalues --    2.73026   2.73856   2.76515   2.78674   2.80563
 Alpha virt. eigenvalues --    2.82298   2.85320   2.88230   2.94047   2.96155
 Alpha virt. eigenvalues --    3.06607   3.08254   3.12692   3.16040   3.23733
 Alpha virt. eigenvalues --    3.24319   3.26963   3.28816   3.32255   3.36392
 Alpha virt. eigenvalues --    3.37708   3.41891   3.42049   3.54132   3.56641
 Alpha virt. eigenvalues --    3.92974   3.94741  11.64182
          Condensed to atoms (all electrons):
               1          2          3          4          5          6
     1  C    4.864969   0.488951  -0.028077   0.004897  -0.000154  -0.000002
     2  C    0.488951   4.861071   0.515063  -0.000126  -0.000003   0.000000
     3  C   -0.028077   0.515063   4.835472  -0.000026   0.000001  -0.000000
     4  C    0.004897  -0.000126  -0.000026   5.131609   0.468626   0.022308
     5  C   -0.000154  -0.000003   0.000001   0.468626   4.901511   0.478676
     6  C   -0.000002   0.000000  -0.000000   0.022308   0.478676   4.905760
     7  C    0.000001   0.000000  -0.000000  -0.067571  -0.004249   0.492563
     8  C    0.000004   0.000000  -0.000000   0.032756  -0.084395   0.021616
     9  C   -0.000325   0.000014   0.000024   0.348871   0.025190  -0.106834
    10  H   -0.032174   0.383313  -0.033857   0.000002  -0.000000   0.000000
    11  H   -0.000000   0.000000   0.000000   0.004787  -0.036482   0.383033
    12  H    0.004167  -0.031936   0.387406  -0.000000   0.000000  -0.000000
    13  H    0.387486  -0.034764   0.004118   0.000174  -0.000001  -0.000000
    14  H   -0.000000  -0.000000   0.000000   0.003677   0.000263   0.004306
    15  H   -0.000000  -0.000000   0.000000  -0.000698   0.005293  -0.040955
    16  H    0.000002  -0.000000   0.000000  -0.039984   0.389195  -0.040763
    17  Au   0.008094   0.000894   0.004326  -0.025234   0.007383   0.000248
    18  Cl  -0.001638   0.000130   0.001471  -0.000656  -0.000337   0.000037
    19  C    0.547334  -0.005212  -0.036085  -0.111988   0.005009  -0.000123
    20  N   -0.042753  -0.070812  -0.027513  -0.003666  -0.000527  -0.000494
    21  C   -0.042599  -0.010630   0.544024  -0.000240   0.000006   0.000000
    22  H    0.000479   0.003067  -0.026638   0.000042   0.000000  -0.000000
    23  Cl  -0.000413   0.000188  -0.000290  -0.003434  -0.001758  -0.000396
    24  C   -0.028583   0.005981  -0.000195   0.308923  -0.034558   0.010070
    25  O   -0.006241   0.002104  -0.000328  -0.099153  -0.008689   0.001562
               7          8          9         10         11         12
     1  C    0.000001   0.000004  -0.000325  -0.032174  -0.000000   0.004167
     2  C    0.000000   0.000000   0.000014   0.383313   0.000000  -0.031936
     3  C   -0.000000  -0.000000   0.000024  -0.033857   0.000000   0.387406
     4  C   -0.067571   0.032756   0.348871   0.000002   0.004787  -0.000000
     5  C   -0.004249  -0.084395   0.025190  -0.000000  -0.036482   0.000000
     6  C    0.492563   0.021616  -0.106834   0.000000   0.383033  -0.000000
     7  C    4.843897   0.481427   0.032991  -0.000000  -0.037449  -0.000000
     8  C    0.481427   4.966163   0.404196   0.000000   0.004933   0.000000
     9  C    0.032991   0.404196   5.672964   0.000000  -0.000446   0.000000
    10  H   -0.000000   0.000000   0.000000   0.506677  -0.000000  -0.003812
    11  H   -0.037449   0.004933  -0.000446  -0.000000   0.547830  -0.000000
    12  H   -0.000000   0.000000   0.000000  -0.003812  -0.000000   0.498852
    13  H    0.000000   0.000000  -0.000020  -0.003606  -0.000000  -0.000080
    14  H   -0.029472   0.381064  -0.027764  -0.000000  -0.000112   0.000000
    15  H    0.386519  -0.041832   0.007690  -0.000000  -0.004743   0.000000
    16  H    0.005152  -0.001007   0.008452  -0.000000  -0.004590   0.000000
    17  Au   0.001177  -0.058338  -0.005671  -0.000087   0.000303  -0.000765
    18  Cl  -0.000181   0.001486   0.002620  -0.000007  -0.000001   0.000289
    19  C   -0.000018  -0.000271  -0.013788   0.003472   0.000003  -0.000282
    20  N   -0.000425   0.001732  -0.019814   0.001044  -0.000012   0.004525
    21  C    0.000000   0.000007   0.000531   0.003862  -0.000000  -0.034362
    22  H    0.000000  -0.000001  -0.000129  -0.000104  -0.000000  -0.003015
    23  Cl   0.002062   0.008259  -0.014292  -0.000000  -0.000041  -0.000004
    24  C   -0.001426   0.010534  -0.025489  -0.000092  -0.000083   0.000001
    25  O   -0.000200   0.000150   0.007695   0.000077   0.000041   0.000001
              13         14         15         16         17         18
     1  C    0.387486  -0.000000  -0.000000   0.000002   0.008094  -0.001638
     2  C   -0.034764  -0.000000  -0.000000  -0.000000   0.000894   0.000130
     3  C    0.004118   0.000000   0.000000   0.000000   0.004326   0.001471
     4  C    0.000174   0.003677  -0.000698  -0.039984  -0.025234  -0.000656
     5  C   -0.000001   0.000263   0.005293   0.389195   0.007383  -0.000337
     6  C   -0.000000   0.004306  -0.040955  -0.040763   0.000248   0.000037
     7  C    0.000000  -0.029472   0.386519   0.005152   0.001177  -0.000181
     8  C    0.000000   0.381064  -0.041832  -0.001007  -0.058338   0.001486
     9  C   -0.000020  -0.027764   0.007690   0.008452  -0.005671   0.002620
    10  H   -0.003606  -0.000000  -0.000000  -0.000000  -0.000087  -0.000007
    11  H   -0.000000  -0.000112  -0.004743  -0.004590   0.000303  -0.000001
    12  H   -0.000080   0.000000   0.000000   0.000000  -0.000765   0.000289
    13  H    0.478703  -0.000000   0.000000  -0.000001  -0.000671   0.000031
    14  H   -0.000000   0.506013  -0.005585   0.000005   0.001372   0.000420
    15  H    0.000000  -0.005585   0.549121  -0.000099  -0.000159   0.000005
    16  H   -0.000001   0.000005  -0.000099   0.529750  -0.000011   0.000002
    17  Au  -0.000671   0.001372  -0.000159  -0.000011  19.444720   0.064264
    18  Cl   0.000031   0.000420   0.000005   0.000002   0.064264  17.113555
    19  C   -0.031272   0.000007  -0.000000   0.000001  -0.025960  -0.003509
    20  N    0.006234  -0.000408   0.000037   0.000016  -0.147370  -0.028376
    21  C   -0.000363   0.000002   0.000000   0.000000  -0.039332   0.001541
    22  H    0.000009   0.000000   0.000000   0.000000  -0.001527   0.010401
    23  Cl  -0.000015  -0.000596   0.000486   0.000068  -0.081525  -0.009672
    24  C   -0.007202  -0.000086  -0.000009  -0.013018  -0.012274   0.001774
    25  O    0.000040   0.000018  -0.000003   0.001172  -0.003806   0.000331
              19         20         21         22         23         24
     1  C    0.547334  -0.042753  -0.042599   0.000479  -0.000413  -0.028583
     2  C   -0.005212  -0.070812  -0.010630   0.003067   0.000188   0.005981
     3  C   -0.036085  -0.027513   0.544024  -0.026638  -0.000290  -0.000195
     4  C   -0.111988  -0.003666  -0.000240   0.000042  -0.003434   0.308923
     5  C    0.005009  -0.000527   0.000006   0.000000  -0.001758  -0.034558
     6  C   -0.000123  -0.000494   0.000000  -0.000000  -0.000396   0.010070
     7  C   -0.000018  -0.000425   0.000000   0.000000   0.002062  -0.001426
     8  C   -0.000271   0.001732   0.000007  -0.000001   0.008259   0.010534
     9  C   -0.013788  -0.019814   0.000531  -0.000129  -0.014292  -0.025489
    10  H    0.003472   0.001044   0.003862  -0.000104  -0.000000  -0.000092
    11  H    0.000003  -0.000012  -0.000000  -0.000000  -0.000041  -0.000083
    12  H   -0.000282   0.004525  -0.034362  -0.003015  -0.000004   0.000001
    13  H   -0.031272   0.006234  -0.000363   0.000009  -0.000015  -0.007202
    14  H    0.000007  -0.000408   0.000002   0.000000  -0.000596  -0.000086
    15  H   -0.000000   0.000037   0.000000   0.000000   0.000486  -0.000009
    16  H    0.000001   0.000016   0.000000   0.000000   0.000068  -0.013018
    17  Au  -0.025960  -0.147370  -0.039332  -0.001527  -0.081525  -0.012274
    18  Cl  -0.003509  -0.028376   0.001541   0.010401  -0.009672   0.001774
    19  C    4.940636   0.320997  -0.035800   0.002430  -0.000039   0.303509
    20  N    0.320997   6.976949   0.380404  -0.045454   0.031233  -0.042684
    21  C   -0.035800   0.380404   4.717947   0.392503   0.001831   0.003944
    22  H    0.002430  -0.045454   0.392503   0.456183   0.000773  -0.000137
    23  Cl  -0.000039   0.031233   0.001831   0.000773  16.987377   0.002029
    24  C    0.303509  -0.042684   0.003944  -0.000137   0.002029   4.767934
    25  O   -0.102637   0.006475  -0.000170   0.000004   0.000257   0.382917
              25
     1  C   -0.006241
     2  C    0.002104
     3  C   -0.000328
     4  C   -0.099153
     5  C   -0.008689
     6  C    0.001562
     7  C   -0.000200
     8  C    0.000150
     9  C    0.007695
    10  H    0.000077
    11  H    0.000041
    12  H    0.000001
    13  H    0.000040
    14  H    0.000018
    15  H   -0.000003
    16  H    0.001172
    17  Au  -0.003806
    18  Cl   0.000331
    19  C   -0.102637
    20  N    0.006475
    21  C   -0.000170
    22  H    0.000004
    23  Cl   0.000257
    24  C    0.382917
    25  O    8.314676
 Mulliken charges:
               1
     1  C   -0.123423
     2  C   -0.107293
     3  C   -0.138895
     4  C    0.026103
     5  C   -0.109999
     6  C   -0.130613
     7  C   -0.104799
     8  C   -0.128482
     9  C   -0.296669
    10  H    0.175292
    11  H    0.143027
    12  H    0.179015
    13  H    0.201201
    14  H    0.166877
    15  H    0.144932
    16  H    0.165657
    17  Au  -0.130053
    18  Cl  -0.153980
    19  C    0.243586
    20  N   -0.299338
    21  C    0.116896
    22  H    0.211114
    23  Cl   0.077915
    24  C    0.368218
    25  O   -0.496292
 Sum of Mulliken charges =  -0.00000
 Mulliken charges with hydrogens summed into heavy atoms:
               1
     1  C    0.077778
     2  C    0.068000
     3  C    0.040121
     4  C    0.026103
     5  C    0.055658
     6  C    0.012414
     7  C    0.040134
     8  C    0.038394
     9  C   -0.296669
    17  Au  -0.130053
    18  Cl  -0.153980
    19  C    0.243586
    20  N   -0.299338
    21  C    0.328011
    23  Cl   0.077915
    24  C    0.368218
    25  O   -0.496292
 Electronic spatial extent (au):  <R**2>=           5159.9704
 Charge=              0.0000 electrons
 Dipole moment (field-independent basis, Debye):
    X=              2.1051    Y=              8.4572    Z=             -4.7657  Tot=              9.9332
 Quadrupole moment (field-independent basis, Debye-Ang):
   XX=           -102.0425   YY=           -138.1290   ZZ=           -131.6804
   XY=             11.4216   XZ=             -2.4620   YZ=             -1.1351
 Traceless Quadrupole moment (field-independent basis, Debye-Ang):
   XX=             21.9081   YY=            -14.1784   ZZ=             -7.7297
   XY=             11.4216   XZ=             -2.4620   YZ=             -1.1351
 Octapole moment (field-independent basis, Debye-Ang**2):
  XXX=             29.3296  YYY=            -46.6439  ZZZ=             -3.1005  XYY=             10.6398
  XXY=             42.4129  XXZ=            -46.2444  XZZ=              8.3803  YZZ=            -55.7641
  YYZ=            -20.9977  XYZ=             -0.4451
 Hexadecapole moment (field-independent basis, Debye-Ang**3):
 XXXX=          -2947.3059 YYYY=          -3004.5950 ZZZZ=           -493.8694 XXXY=             97.8922
 XXXZ=            -26.0903 YYYX=            103.6499 YYYZ=            -26.6254 ZZZX=            -10.4122
 ZZZY=             -5.9395 XXYY=           -925.2927 XXZZ=           -631.6035 YYZZ=           -641.1832
 XXYZ=            -10.8254 YYXZ=             -4.8494 ZZXY=             12.8450
 N-N= 1.587568389245D+03 E-N=-7.018344380828D+03  KE= 1.549371380114D+03
 No NMR shielding tensors so no spin-rotation constants.
 Leave Link  601 at Tue Mar 14 09:25:54 2023, MaxMem= 10737418240 cpu:              12.7 elap:               0.4
 (Enter /home/support/apps/apps/gaussian/g16/l612.exe)
 Running external command "gaunbo7 R"
         input file       "/home/shared/scratch/Gau-74588.EIn"
         output file      "/home/shared/scratch/Gau-74588.EOu"
         message file     "/home/shared/scratch/Gau-74588.EMs"
         fchk file        "/home/shared/scratch/Gau-74588.EFC"
         mat. el file     "/home/shared/scratch/Gau-74588.EUF"

 Writing WrtUnf unformatted file "/home/shared/scratch/Gau-74588.EUF"
 Gaussian matrix elements                                         Version   2 NLab=11 Len12L=8 Len4L=8
 Write SHELL TO ATOM MAP                   from file      0 offset           0 length                 103 to matrix element file.
 Write SHELL TYPES                         from file      0 offset           0 length                 103 to matrix element file.
 Write NUMBER OF PRIMITIVES PER SHELL      from file      0 offset           0 length                 103 to matrix element file.
 Write PRIMITIVE EXPONENTS                 from file      0 offset           0 length                 249 to matrix element file.
 Write CONTRACTION COEFFICIENTS            from file      0 offset           0 length                 249 to matrix element file.
 Write P(S=P) CONTRACTION COEFFICIENTS     from file      0 offset           0 length                 249 to matrix element file.
 Write COORDINATES OF EACH SHELL           from file      0 offset           0 length                 309 to matrix element file.
 Write BONDS PER ATOM                      from file      0 offset           0 length                  25 to matrix element file.
 Write BONDED ATOMS                        from file      0 offset           0 length                  54 to matrix element file.
 Write BOND TYPES                          from file      0 offset           0 length                  54 to matrix element file.
 Write ONIOM CHARGE/MULT                   from file      0 offset           0 length                  32 to matrix element file.
 Write ONIOM ATOM LAYERS                   from file      0 offset           0 length                  25 to matrix element file.
 Write ONIOM ATOM MODIFIERS                from file      0 offset           0 length                  25 to matrix element file.
 Write ONIOM ATOM TYPES                    from file      0 offset           0 length                  25 to matrix element file.
 Write ONIOM LINK ATOMS                    from file      0 offset           0 length                  25 to matrix element file.
 Write ONIOM LINK CHARGES                  from file      0 offset           0 length                  25 to matrix element file.
 Write ONIOM LINK DISTANCES                from file      0 offset           0 length                 100 to matrix element file.
 Write SYMINF INTS                         from file      0 offset           0 length                  26 to matrix element file.
 Write ROTTR TO SO                         from file      0 offset           0 length                  12 to matrix element file.
 Write GAUSSIAN SCALARS                    from file    501 offset           0 to matrix element file.
 Write OPTIMIZATION FLAGS                  from file      0 offset           0 length                  25 to matrix element file.
 Write INTEGER ISO                         from file      0 offset           0 length                  25 to matrix element file.
 Write INTEGER SPIN                        from file      0 offset           0 length                  25 to matrix element file.
 Write REAL ZEFFECTIVE                     from file      0 offset           0 length                  25 to matrix element file.
 Write REAL QUADRUPOLEMOMENT               from file      0 offset           0 length                  25 to matrix element file.
 Write REAL GFACTOR                        from file      0 offset           0 length                  25 to matrix element file.
 Write REAL ZNUCLEAR                       from file      0 offset           0 length                  25 to matrix element file.
 Write MULLIKEN CHARGES                    from file      0 offset           0 length                  25 to matrix element file.
 Write NUCLEAR GRADIENT                    from file  10584 offset           0 length                  75 to matrix element file.
 Array NUCLEAR FORCE CONSTANTS              on  file  10585 does not exist.
 Write ELECTRIC DIPOLE MOMENT              from file      0 offset           0 length                   3 to matrix element file.
 Write NON-ADIABATIC COUPLING              from file  10810 offset           0 length                  75 to matrix element file.
 Write FINITE EM FIELD                     from file  10521 offset           0 length                  35 to matrix element file.
 Write OVERLAP                             from file  10514 offset           0 length               50403 to matrix element file.
 Write CORE HAMILTONIAN ALPHA              from file  10515 offset           0 length               50403 to matrix element file.
 Write CORE HAMILTONIAN BETA               from file  10515 offset       50403 length               50403 to matrix element file.
 Write KINETIC ENERGY                      from file  10516 offset           0 length               50403 to matrix element file.
 Write ORTHOGONAL BASIS                    from file  10685 offset           0 length              100489 to matrix element file.
 Write DIPOLE INTEGRALS                    from file  10518 offset           0 length              151209 to matrix element file.
 Array DIP VEL INTEGRALS                    on  file  10572 does not exist.
 Array R X DEL INTEGRALS                    on  file  10572 does not exist.
 Write ALPHA ORBITAL ENERGIES              from file      0 offset           0 length                 317 to matrix element file.
 Write ALPHA MO COEFFICIENTS               from file  10524 offset           0 length              100489 to matrix element file.
 Write ALPHA DENSITY MATRIX                from file      0 offset           0 length               50403 to matrix element file.
 Write ALPHA FOCK MATRIX                   from file  10536 offset           0 length               50403 to matrix element file.
 Write ENERGY-WEIGHTED DENSITY             from file  10571 offset           0 length               50403 to matrix element file.
 Write ALPHA SCF DENSITY MATRIX            from file      0 offset           0 length               50403 to matrix element file.
 No 2e integrals to process.
 Perform NBO analysis...executing G16NBO...

 *********************************** NBO 7.0 ***********************************
             N A T U R A L   A T O M I C   O R B I T A L   A N D
          N A T U R A L   B O N D   O R B I T A L   A N A L Y S I S
 ************************ Max  Garcia-Melchor (I102306) ************************
  (c) Copyright 1996-2021 Board of Regents of the University of Wisconsin System
      on behalf of the Theoretical Chemistry Institute.  All rights reserved.

          Cite this program [NBO 7.0.10 (8-Feb-2021)] as:

          NBO 7.0.  E. D. Glendening, J. K. Badenhoop, A. E. Reed,
          J. E. Carpenter, J. A. Bohmann, C. M. Morales, P. Karafiloglou,
          C. R. Landis, and F. Weinhold, Theoretical Chemistry Institute,
          University of Wisconsin, Madison, WI (2018)

       /AONBO  / : Checkpoint the AO to NBO transformation

 Filename set to /home/shared/scratch/Gau-74588

 Job title: continue calc


 NATURAL POPULATIONS:  Natural atomic orbital occupancies

  NAO Atom No lang   Type(AO)    Occupancy      Energy
 -------------------------------------------------------
   1    C  1  s      Cor( 1s)     1.99997     -10.36508
   2    C  1  s      Val( 2s)     0.96651      -0.13863
   3    C  1  s      Ryd( 3s)     0.00084       1.11227
   4    C  1  px     Val( 2p)     1.04584      -0.08175
   5    C  1  px     Ryd( 3p)     0.00337       0.79490
   6    C  1  py     Val( 2p)     1.18528      -0.13072
   7    C  1  py     Ryd( 3p)     0.00482       1.02839
   8    C  1  pz     Val( 2p)     1.02398      -0.14800
   9    C  1  pz     Ryd( 3p)     0.00152       0.78916
  10    C  1  dxy    Ryd( 3d)     0.00093       2.35273
  11    C  1  dxz    Ryd( 3d)     0.00063       2.21403
  12    C  1  dyz    Ryd( 3d)     0.00069       2.16542
  13    C  1  dx2y2  Ryd( 3d)     0.00071       2.35232
  14    C  1  dz2    Ryd( 3d)     0.00063       2.07162

  15    C  2  s      Cor( 1s)     1.99997     -10.37704
  16    C  2  s      Val( 2s)     0.97201      -0.14977
  17    C  2  s      Ryd( 3s)     0.00074       1.08924
  18    C  2  px     Val( 2p)     1.11995      -0.11160
  19    C  2  px     Ryd( 3p)     0.00439       0.93285
  20    C  2  py     Val( 2p)     1.11360      -0.10917
  21    C  2  py     Ryd( 3p)     0.00434       0.91597
  22    C  2  pz     Val( 2p)     0.94934      -0.13348
  23    C  2  pz     Ryd( 3p)     0.00143       0.67193
  24    C  2  dxy    Ryd( 3d)     0.00095       2.37261
  25    C  2  dxz    Ryd( 3d)     0.00066       2.17419
  26    C  2  dyz    Ryd( 3d)     0.00064       2.17540
  27    C  2  dx2y2  Ryd( 3d)     0.00082       2.29057
  28    C  2  dz2    Ryd( 3d)     0.00067       2.09689

  29    C  3  s      Cor( 1s)     1.99997     -10.36612
  30    C  3  s      Val( 2s)     0.97549      -0.15094
  31    C  3  s      Ryd( 3s)     0.00073       1.06772
  32    C  3  px     Val( 2p)     1.16431      -0.12779
  33    C  3  px     Ryd( 3p)     0.00457       1.00618
  34    C  3  py     Val( 2p)     1.06180      -0.08461
  35    C  3  py     Ryd( 3p)     0.00308       0.74732
  36    C  3  pz     Val( 2p)     1.04843      -0.15299
  37    C  3  pz     Ryd( 3p)     0.00152       0.77402
  38    C  3  dxy    Ryd( 3d)     0.00088       2.35790
  39    C  3  dxz    Ryd( 3d)     0.00072       2.16618
  40    C  3  dyz    Ryd( 3d)     0.00063       2.19198
  41    C  3  dx2y2  Ryd( 3d)     0.00073       2.32398
  42    C  3  dz2    Ryd( 3d)     0.00058       2.06208

  43    C  4  s      Cor( 1s)     1.99998     -10.33888
  44    C  4  s      Val( 2s)     0.88880      -0.07190
  45    C  4  s      Ryd( 3s)     0.00146       1.13592
  46    C  4  px     Val( 2p)     1.09216      -0.07527
  47    C  4  px     Ryd( 3p)     0.00535       1.17788
  48    C  4  py     Val( 2p)     1.12336      -0.07877
  49    C  4  py     Ryd( 3p)     0.00318       1.06680
  50    C  4  pz     Val( 2p)     1.07894      -0.12892
  51    C  4  pz     Ryd( 3p)     0.00360       0.91097
  52    C  4  dxy    Ryd( 3d)     0.00081       2.44418
  53    C  4  dxz    Ryd( 3d)     0.00056       2.14933
  54    C  4  dyz    Ryd( 3d)     0.00071       2.23184
  55    C  4  dx2y2  Ryd( 3d)     0.00089       2.37258
  56    C  4  dz2    Ryd( 3d)     0.00053       2.18893

  57    C  5  s      Cor( 1s)     1.99998     -10.32921
  58    C  5  s      Val( 2s)     0.95391      -0.09199
  59    C  5  s      Ryd( 3s)     0.00083       1.16973
  60    C  5  px     Val( 2p)     1.03505      -0.03568
  61    C  5  px     Ryd( 3p)     0.00357       0.81630
  62    C  5  py     Val( 2p)     1.17574      -0.08740
  63    C  5  py     Ryd( 3p)     0.00497       1.11259
  64    C  5  pz     Val( 2p)     1.00679      -0.10727
  65    C  5  pz     Ryd( 3p)     0.00169       0.80836
  66    C  5  dxy    Ryd( 3d)     0.00085       2.39930
  67    C  5  dxz    Ryd( 3d)     0.00068       2.24678
  68    C  5  dyz    Ryd( 3d)     0.00063       2.19593
  69    C  5  dx2y2  Ryd( 3d)     0.00084       2.41954
  70    C  5  dz2    Ryd( 3d)     0.00062       2.13283

  71    C  6  s      Cor( 1s)     1.99998     -10.32177
  72    C  6  s      Val( 2s)     0.95987      -0.09621
  73    C  6  s      Ryd( 3s)     0.00074       1.11744
  74    C  6  px     Val( 2p)     1.14192      -0.06896
  75    C  6  px     Ryd( 3p)     0.00445       1.00889
  76    C  6  py     Val( 2p)     1.11546      -0.06007
  77    C  6  py     Ryd( 3p)     0.00424       0.93492
  78    C  6  pz     Val( 2p)     1.01407      -0.09669
  79    C  6  pz     Ryd( 3p)     0.00164       0.71350
  80    C  6  dxy    Ryd( 3d)     0.00093       2.41896
  81    C  6  dxz    Ryd( 3d)     0.00061       2.20308
  82    C  6  dyz    Ryd( 3d)     0.00059       2.22012
  83    C  6  dx2y2  Ryd( 3d)     0.00078       2.34594
  84    C  6  dz2    Ryd( 3d)     0.00063       2.15091

  85    C  7  s      Cor( 1s)     1.99998     -10.32665
  86    C  7  s      Val( 2s)     0.96545      -0.10147
  87    C  7  s      Ryd( 3s)     0.00068       1.14048
  88    C  7  px     Val( 2p)     1.14711      -0.07625
  89    C  7  px     Ryd( 3p)     0.00483       1.05436
  90    C  7  py     Val( 2p)     1.05852      -0.03776
  91    C  7  py     Ryd( 3p)     0.00350       0.79836
  92    C  7  pz     Val( 2p)     1.01948      -0.10731
  93    C  7  pz     Ryd( 3p)     0.00175       0.81190
  94    C  7  dxy    Ryd( 3d)     0.00081       2.41629
  95    C  7  dxz    Ryd( 3d)     0.00073       2.19552
  96    C  7  dyz    Ryd( 3d)     0.00069       2.22407
  97    C  7  dx2y2  Ryd( 3d)     0.00087       2.38121
  98    C  7  dz2    Ryd( 3d)     0.00052       2.11673

  99    C  8  s      Cor( 1s)     1.99998     -10.32105
 100    C  8  s      Val( 2s)     0.96188      -0.09692
 101    C  8  s      Ryd( 3s)     0.00156       1.14351
 102    C  8  px     Val( 2p)     1.05583      -0.04265
 103    C  8  px     Ryd( 3p)     0.00447       0.77637
 104    C  8  py     Val( 2p)     1.19658      -0.08506
 105    C  8  py     Ryd( 3p)     0.00690       1.17257
 106    C  8  pz     Val( 2p)     1.02950      -0.10736
 107    C  8  pz     Ryd( 3p)     0.00228       0.78701
 108    C  8  dxy    Ryd( 3d)     0.00084       2.40862
 109    C  8  dxz    Ryd( 3d)     0.00069       2.22596
 110    C  8  dyz    Ryd( 3d)     0.00071       2.14787
 111    C  8  dx2y2  Ryd( 3d)     0.00090       2.38637
 112    C  8  dz2    Ryd( 3d)     0.00056       2.14113

 113    C  9  s      Cor( 1s)     1.99997     -10.35509
 114    C  9  s      Val( 2s)     0.99463      -0.15135
 115    C  9  s      Ryd( 3s)     0.00437       1.32543
 116    C  9  px     Val( 2p)     1.10786      -0.12188
 117    C  9  px     Ryd( 3p)     0.01178       1.15549
 118    C  9  py     Val( 2p)     1.07247      -0.09288
 119    C  9  py     Ryd( 3p)     0.01109       1.07697
 120    C  9  pz     Val( 2p)     0.99225      -0.11452
 121    C  9  pz     Ryd( 3p)     0.00400       0.80478
 122    C  9  dxy    Ryd( 3d)     0.00066       2.22096
 123    C  9  dxz    Ryd( 3d)     0.00074       2.21618
 124    C  9  dyz    Ryd( 3d)     0.00079       2.21220
 125    C  9  dx2y2  Ryd( 3d)     0.00105       2.40197
 126    C  9  dz2    Ryd( 3d)     0.00065       2.12640

 127    H 10  s      Val( 1s)     0.72658       0.09890
 128    H 10  s      Ryd( 2s)     0.00067       0.60198
 129    H 10  px     Ryd( 2p)     0.00027       2.84254
 130    H 10  py     Ryd( 2p)     0.00025       2.81169
 131    H 10  pz     Ryd( 2p)     0.00007       2.38896

 132    H 11  s      Val( 1s)     0.74018       0.12875
 133    H 11  s      Ryd( 2s)     0.00071       0.64055
 134    H 11  px     Ryd( 2p)     0.00030       2.92665
 135    H 11  py     Ryd( 2p)     0.00022       2.82035
 136    H 11  pz     Ryd( 2p)     0.00010       2.42782

 137    H 12  s      Val( 1s)     0.72044       0.10548
 138    H 12  s      Ryd( 2s)     0.00048       0.60942
 139    H 12  px     Ryd( 2p)     0.00034       2.94851
 140    H 12  py     Ryd( 2p)     0.00007       2.59279
 141    H 12  pz     Ryd( 2p)     0.00018       2.53392

 142    H 13  s      Val( 1s)     0.70502       0.12011
 143    H 13  s      Ryd( 2s)     0.00119       0.67236
 144    H 13  px     Ryd( 2p)     0.00008       2.60515
 145    H 13  py     Ryd( 2p)     0.00035       3.00116
 146    H 13  pz     Ryd( 2p)     0.00020       2.53584

 147    H 14  s      Val( 1s)     0.71960       0.15081
 148    H 14  s      Ryd( 2s)     0.00109       0.71351
 149    H 14  px     Ryd( 2p)     0.00006       2.62029
 150    H 14  py     Ryd( 2p)     0.00047       3.11469
 151    H 14  pz     Ryd( 2p)     0.00014       2.51908

 152    H 15  s      Val( 1s)     0.73979       0.12928
 153    H 15  s      Ryd( 2s)     0.00069       0.64453
 154    H 15  px     Ryd( 2p)     0.00034       2.97367
 155    H 15  py     Ryd( 2p)     0.00008       2.64085
 156    H 15  pz     Ryd( 2p)     0.00019       2.55286

 157    H 16  s      Val( 1s)     0.72748       0.13561
 158    H 16  s      Ryd( 2s)     0.00124       0.69624
 159    H 16  px     Ryd( 2p)     0.00006       2.62552
 160    H 16  py     Ryd( 2p)     0.00039       3.06068
 161    H 16  pz     Ryd( 2p)     0.00020       2.53051

 162   Au 17  s      Cor( 5s)     1.99994      -4.38815
 163   Au 17  s      Val( 6s)     0.55947       0.17266
 164   Au 17  s      Ryd( 7s)     0.00141       6.17775
 165   Au 17  px     Cor( 5p)     1.99985      -2.51962
 166   Au 17  px     Ryd( 7p)     0.00289       1.02280
 167   Au 17  px     Ryd( 6p)     0.00035       0.27516
 168   Au 17  py     Cor( 5p)     1.99986      -2.51868
 169   Au 17  py     Ryd( 7p)     0.00275       0.81534
 170   Au 17  py     Ryd( 6p)     0.00047       0.29599
 171   Au 17  pz     Cor( 5p)     1.99992      -2.49340
 172   Au 17  pz     Ryd( 7p)     0.00843       0.36058
 173   Au 17  pz     Ryd( 6p)     0.00062       0.17446
 174   Au 17  dxy    Val( 5d)     1.41608      -0.42548
 175   Au 17  dxy    Ryd( 6d)     0.00624       0.95121
 176   Au 17  dxz    Val( 5d)     1.95353      -0.48083
 177   Au 17  dxz    Ryd( 6d)     0.00135       0.62606
 178   Au 17  dyz    Val( 5d)     1.97391      -0.48293
 179   Au 17  dyz    Ryd( 6d)     0.00143       0.59017
 180   Au 17  dx2y2  Val( 5d)     1.97018      -0.50119
 181   Au 17  dx2y2  Ryd( 6d)     0.00266       0.71261
 182   Au 17  dz2    Val( 5d)     1.94922      -0.47249
 183   Au 17  dz2    Ryd( 6d)     0.00232       0.84112
 184   Au 17  f(0)   Ryd( 5f)     0.00019       2.03495
 185   Au 17  f(c1)  Ryd( 5f)     0.00026       2.05603
 186   Au 17  f(s1)  Ryd( 5f)     0.00025       2.07161
 187   Au 17  f(c2)  Ryd( 5f)     0.00004       2.01040
 188   Au 17  f(s2)  Ryd( 5f)     0.00035       2.04776
 189   Au 17  f(c3)  Ryd( 5f)     0.00069       2.10980
 190   Au 17  f(s3)  Ryd( 5f)     0.00072       2.06751

 191   Cl 18  s      Cor( 1s)     2.00000     -98.12813
 192   Cl 18  s      Cor( 2s)     1.99999     -13.01834
 193   Cl 18  s      Val( 3s)     1.96082      -0.81078
 194   Cl 18  s      Ryd( 5s)     0.00196       1.33791
 195   Cl 18  s      Ryd( 4s)     0.00032       0.85880
 196   Cl 18  px     Cor( 2p)     2.00000      -7.25914
 197   Cl 18  px     Val( 3p)     1.80638      -0.33363
 198   Cl 18  px     Ryd( 4p)     0.00156       0.57138
 199   Cl 18  px     Ryd( 5p)     0.00036       0.63223
 200   Cl 18  py     Cor( 2p)     2.00000      -7.25772
 201   Cl 18  py     Val( 3p)     1.88903      -0.34152
 202   Cl 18  py     Ryd( 4p)     0.00080       0.49534
 203   Cl 18  py     Ryd( 5p)     0.00024       0.66589
 204   Cl 18  pz     Cor( 2p)     2.00000      -7.25616
 205   Cl 18  pz     Val( 3p)     1.98089      -0.34768
 206   Cl 18  pz     Ryd( 4p)     0.00080       0.39161
 207   Cl 18  pz     Ryd( 5p)     0.00006       0.63069
 208   Cl 18  dxy    Ryd( 3d)     0.00183       1.16675
 209   Cl 18  dxz    Ryd( 3d)     0.00044       1.06288
 210   Cl 18  dyz    Ryd( 3d)     0.00047       1.05695
 211   Cl 18  dx2y2  Ryd( 3d)     0.00064       1.11393
 212   Cl 18  dz2    Ryd( 3d)     0.00062       1.06942

 213    C 19  s      Cor( 1s)     1.99997     -10.40945
 214    C 19  s      Val( 2s)     0.86373      -0.11515
 215    C 19  s      Ryd( 3s)     0.00318       1.09781
 216    C 19  px     Val( 2p)     1.07966      -0.11363
 217    C 19  px     Ryd( 3p)     0.00665       1.05263
 218    C 19  py     Val( 2p)     0.93025      -0.05920
 219    C 19  py     Ryd( 3p)     0.00587       0.92064
 220    C 19  pz     Val( 2p)     0.93571      -0.14541
 221    C 19  pz     Ryd( 3p)     0.00403       0.83785
 222    C 19  dxy    Ryd( 3d)     0.00103       2.43923
 223    C 19  dxz    Ryd( 3d)     0.00067       2.13567
 224    C 19  dyz    Ryd( 3d)     0.00101       2.26018
 225    C 19  dx2y2  Ryd( 3d)     0.00127       2.36792
 226    C 19  dz2    Ryd( 3d)     0.00075       2.17511

 227    N 20  s      Cor( 1s)     1.99998     -14.57512
 228    N 20  s      Val( 2s)     1.30256      -0.52407
 229    N 20  s      Ryd( 3s)     0.00517       0.80496
 230    N 20  s      Ryd( 4s)     0.00093       1.49140
 231    N 20  px     Val( 2p)     1.43930      -0.34076
 232    N 20  px     Ryd( 4p)     0.00824       1.09579
 233    N 20  px     Ryd( 3p)     0.00113       0.66283
 234    N 20  py     Val( 2p)     1.42499      -0.33973
 235    N 20  py     Ryd( 4p)     0.01034       1.12690
 236    N 20  py     Ryd( 3p)     0.00122       0.62325
 237    N 20  pz     Val( 2p)     1.32140      -0.31854
 238    N 20  pz     Ryd( 4p)     0.00461       0.78104
 239    N 20  pz     Ryd( 3p)     0.00074       0.55447
 240    N 20  dxy    Ryd( 3d)     0.00041       2.10590
 241    N 20  dxz    Ryd( 3d)     0.00133       2.15999
 242    N 20  dyz    Ryd( 3d)     0.00131       2.15216
 243    N 20  dx2y2  Ryd( 3d)     0.00190       2.35669
 244    N 20  dz2    Ryd( 3d)     0.00082       1.98730

 245    C 21  s      Cor( 1s)     1.99997     -10.40060
 246    C 21  s      Val( 2s)     0.93425      -0.14828
 247    C 21  s      Ryd( 3s)     0.00243       1.06385
 248    C 21  px     Val( 2p)     0.88876      -0.04461
 249    C 21  px     Ryd( 3p)     0.00664       0.72487
 250    C 21  py     Val( 2p)     1.17594      -0.13136
 251    C 21  py     Ryd( 3p)     0.00719       1.04229
 252    C 21  pz     Val( 2p)     0.90421      -0.13561
 253    C 21  pz     Ryd( 3p)     0.00340       0.73888
 254    C 21  dxy    Ryd( 3d)     0.00104       2.40361
 255    C 21  dxz    Ryd( 3d)     0.00101       2.23014
 256    C 21  dyz    Ryd( 3d)     0.00082       2.12290
 257    C 21  dx2y2  Ryd( 3d)     0.00131       2.38428
 258    C 21  dz2    Ryd( 3d)     0.00078       2.13042

 259    H 22  s      Val( 1s)     0.70885       0.11930
 260    H 22  s      Ryd( 2s)     0.00160       0.73817
 261    H 22  px     Ryd( 2p)     0.00004       2.57873
 262    H 22  py     Ryd( 2p)     0.00054       3.07946
 263    H 22  pz     Ryd( 2p)     0.00012       2.47910

 264   Cl 23  s      Cor( 1s)     2.00000     -98.16400
 265   Cl 23  s      Cor( 2s)     1.99999     -13.04751
 266   Cl 23  s      Val( 3s)     1.94874      -0.83056
 267   Cl 23  s      Ryd( 5s)     0.00210       1.67270
 268   Cl 23  s      Ryd( 4s)     0.00048       0.88769
 269   Cl 23  px     Cor( 2p)     1.99999      -7.28982
 270   Cl 23  px     Val( 3p)     1.79944      -0.35372
 271   Cl 23  px     Ryd( 4p)     0.00170       0.50851
 272   Cl 23  px     Ryd( 5p)     0.00044       0.61587
 273   Cl 23  py     Cor( 2p)     1.99999      -7.29104
 274   Cl 23  py     Val( 3p)     1.72839      -0.34762
 275   Cl 23  py     Ryd( 4p)     0.00122       0.56653
 276   Cl 23  py     Ryd( 5p)     0.00042       0.69247
 277   Cl 23  pz     Cor( 2p)     2.00000      -7.28702
 278   Cl 23  pz     Val( 3p)     1.97201      -0.36918
 279   Cl 23  pz     Ryd( 4p)     0.00113       0.41822
 280   Cl 23  pz     Ryd( 5p)     0.00005       0.60028
 281   Cl 23  dxy    Ryd( 3d)     0.00296       1.12132
 282   Cl 23  dxz    Ryd( 3d)     0.00063       1.03504
 283   Cl 23  dyz    Ryd( 3d)     0.00089       1.03616
 284   Cl 23  dx2y2  Ryd( 3d)     0.00104       1.07885
 285   Cl 23  dz2    Ryd( 3d)     0.00094       1.04088

 286    C 24  s      Cor( 1s)     1.99997     -10.43527
 287    C 24  s      Val( 2s)     0.82644      -0.10441
 288    C 24  s      Ryd( 3s)     0.00522       1.07392
 289    C 24  px     Val( 2p)     1.00073      -0.06035
 290    C 24  px     Ryd( 3p)     0.00302       0.95755
 291    C 24  py     Val( 2p)     0.77616      -0.06392
 292    C 24  py     Ryd( 3p)     0.01212       0.85889
 293    C 24  pz     Val( 2p)     0.78678      -0.06294
 294    C 24  pz     Ryd( 3p)     0.00830       0.76467
 295    C 24  dxy    Ryd( 3d)     0.00214       2.29312
 296    C 24  dxz    Ryd( 3d)     0.00227       2.28189
 297    C 24  dyz    Ryd( 3d)     0.00097       2.46268
 298    C 24  dx2y2  Ryd( 3d)     0.00134       2.40037
 299    C 24  dz2    Ryd( 3d)     0.00197       2.17486

 300    O 25  s      Cor( 1s)     1.99999     -19.30363
 301    O 25  s      Val( 2s)     1.69314      -0.77385
 302    O 25  s      Ryd( 3s)     0.00067       0.91420
 303    O 25  s      Ryd( 4s)     0.00005       1.78858
 304    O 25  px     Val( 2p)     1.87972      -0.37581
 305    O 25  px     Ryd( 3p)     0.00438       0.80103
 306    O 25  px     Ryd( 4p)     0.00011       1.00099
 307    O 25  py     Val( 2p)     1.48704      -0.34865
 308    O 25  py     Ryd( 3p)     0.00068       0.72735
 309    O 25  py     Ryd( 4p)     0.00015       0.98054
 310    O 25  pz     Val( 2p)     1.46773      -0.34469
 311    O 25  pz     Ryd( 3p)     0.00055       0.73831
 312    O 25  pz     Ryd( 4p)     0.00023       0.91713
 313    O 25  dxy    Ryd( 3d)     0.00190       2.08338
 314    O 25  dxz    Ryd( 3d)     0.00191       2.04858
 315    O 25  dyz    Ryd( 3d)     0.00406       2.52238
 316    O 25  dx2y2  Ryd( 3d)     0.00215       2.10717
 317    O 25  dz2    Ryd( 3d)     0.00346       2.08155

 [60 electrons found in the effective core potential]


 Summary of Natural Population Analysis:

                                     Natural Population
             Natural    ---------------------------------------------
  Atom No    Charge        Core      Valence    Rydberg      Total
 --------------------------------------------------------------------
    C  1   -0.23574      1.99997     4.22161    0.01416     6.23574
    C  2   -0.16951      1.99997     4.15490    0.01464     6.16951
    C  3   -0.26343      1.99997     4.25003    0.01343     6.26343
    C  4   -0.20034      1.99998     4.18326    0.01710     6.20034
    C  5   -0.18613      1.99998     4.17148    0.01467     6.18613
    C  6   -0.24590      1.99998     4.23132    0.01460     6.24590
    C  7   -0.20492      1.99998     4.19056    0.01439     6.20492
    C  8   -0.26267      1.99998     4.24379    0.01891     6.26267
    C  9   -0.20232      1.99997     4.16721    0.03513     6.20232
    H 10    0.27215      0.00000     0.72658    0.00126     0.72785
    H 11    0.25849      0.00000     0.74018    0.00133     0.74151
    H 12    0.27849      0.00000     0.72044    0.00108     0.72151
    H 13    0.29316      0.00000     0.70502    0.00182     0.70684
    H 14    0.27864      0.00000     0.71960    0.00176     0.72136
    H 15    0.25890      0.00000     0.73979    0.00131     0.74110
    H 16    0.27064      0.00000     0.72748    0.00189     0.72936
   Au 17    1.14462     67.99957     9.82239    0.03342    77.85538
   Cl 18   -0.64719      9.99998     7.63711    0.01010    17.64719
    C 19    0.16621      1.99997     3.80936    0.02446     5.83379
    N 20   -0.52638      1.99998     5.48826    0.03814     7.52638
    C 21    0.07227      1.99997     3.90316    0.02460     5.92773
    H 22    0.28884      0.00000     0.70885    0.00231     0.71116
   Cl 23   -0.46254      9.99997     7.44857    0.01400    17.46254
    C 24    0.57256      1.99997     3.39012    0.03735     5.42744
    O 25   -0.54791      1.99999     6.52763    0.02030     8.54791
 ====================================================================
 * Total *  0.00000    115.99916    91.62869    0.37215   208.00000

                                 Natural Population
 ---------------------------------------------------------
   Effective Core            60.00000
   Core                      55.99916 ( 99.9985% of   56)
   Valence                   91.62869 ( 99.5964% of   92)
   Natural Minimal Basis    207.62785 ( 99.8211% of  208)
   Natural Rydberg Basis      0.37215 (  0.1789% of  208)
 ---------------------------------------------------------

    Atom No         Natural Electron Configuration
 ----------------------------------------------------------------------------
      C  1      [core]2s( 0.97)2p( 3.26)3p( 0.01)
      C  2      [core]2s( 0.97)2p( 3.18)3p( 0.01)
      C  3      [core]2s( 0.98)2p( 3.27)3p( 0.01)
      C  4      [core]2s( 0.89)2p( 3.29)3p( 0.01)
      C  5      [core]2s( 0.95)2p( 3.22)3p( 0.01)
      C  6      [core]2s( 0.96)2p( 3.27)3p( 0.01)
      C  7      [core]2s( 0.97)2p( 3.23)3p( 0.01)
      C  8      [core]2s( 0.96)2p( 3.28)3p( 0.01)
      C  9      [core]2s( 0.99)2p( 3.17)3p( 0.03)
      H 10            1s( 0.73)
      H 11            1s( 0.74)
      H 12            1s( 0.72)
      H 13            1s( 0.71)
      H 14            1s( 0.72)
      H 15            1s( 0.74)
      H 16            1s( 0.73)
     Au 17      [core]6s( 0.56)5d( 9.26)6d( 0.01)7p( 0.01)
     Cl 18      [core]3s( 1.96)3p( 5.68)
      C 19      [core]2s( 0.86)2p( 2.95)3p( 0.02)
      N 20      [core]2s( 1.30)2p( 4.19)3s( 0.01)3d( 0.01)4p( 0.02)
      C 21      [core]2s( 0.93)2p( 2.97)3p( 0.02)
      H 22            1s( 0.71)
     Cl 23      [core]3s( 1.95)3p( 5.50)3d( 0.01)
      C 24      [core]2s( 0.83)2p( 2.56)3s( 0.01)3p( 0.02)3d( 0.01)
      O 25      [core]2s( 1.69)2p( 4.83)3p( 0.01)3d( 0.01)


 NATURAL BOND ORBITAL ANALYSIS:

                            Occupancies       Lewis Structure    Low   High
         Max    Occ     -------------------  -----------------   occ   occ
  Cycle  Ctr   Thresh    Lewis   non-Lewis     CR  BD  nC  LP    (L)   (NL)
[...]
   86. BD*( 2) C  4- C  9       0.39664     0.05262
   87. BD*( 1) C  4- C 24       0.06234     0.51137
   88. BD*( 1) C  5- C  6       0.01411     0.68156
   89. BD*( 2) C  5- C  6       0.28856     0.07607
   90. BD*( 1) C  5- H 16       0.01312     0.57160
   91. BD*( 1) C  6- C  7       0.01559     0.66717
   92. BD*( 1) C  6- H 11       0.01187     0.57049
   93. BD*( 1) C  7- C  8       0.01854     0.67193
   94. BD*( 2) C  7- C  8       0.30061     0.07563
   95. BD*( 1) C  7- H 15       0.01158     0.57093
   96. BD*( 1) C  8- C  9       0.01860     0.66354
   97. BD*( 1) C  8- H 14       0.01505     0.58333
   98. BD*( 1) C  9-Au 17       0.42717     0.07555
   99. BD*( 1)Au 17-Cl 23       0.37624     0.10589
  100. BD*( 1) C 19- N 20       0.02884     0.54383
  101. BD*( 1) C 19- C 24       0.07419     0.44422
  102. BD*( 1) N 20- C 21       0.01968     0.54961
  103. BD*( 2) N 20- C 21       0.43751    -0.02632
  104. BD*( 1) C 21- H 22       0.01896     0.54903
  105. BD*( 1) C 24- O 25       0.00655     0.65554
  106. BD*( 2) C 24- O 25       0.14163     0.05343
  107. RY ( 1) C  1             0.00459     1.28011
  108. RY ( 2) C  1             0.00268     0.82090
  109. RY ( 3) C  1             0.00049     1.75173
  110. RY ( 4) C  1             0.00035     0.96269
  111. RY ( 5) C  1             0.00026     1.09130
  112. RY ( 6) C  1             0.00010     2.38982
  113. RY ( 7) C  1             0.00004     2.38057
  114. RY ( 8) C  1             0.00001     1.84822
  115. RY ( 9) C  1             0.00000     2.33488
  116. RY ( 1) C  2             0.00485     1.30636
  117. RY ( 2) C  2             0.00232     0.75868
  118. RY ( 3) C  2             0.00068     1.96088
  119. RY ( 4) C  2             0.00023     1.05918
  120. RY ( 5) C  2             0.00019     0.74107
  121. RY ( 6) C  2             0.00009     2.40354
  122. RY ( 7) C  2             0.00002     2.36400
  123. RY ( 8) C  2             0.00000     2.16947
  124. RY ( 9) C  2             0.00000     1.93547
  125. RY ( 1) C  3             0.00433     1.26985
  126. RY ( 2) C  3             0.00153     0.79482
  127. RY ( 3) C  3             0.00049     1.78826
  128. RY ( 4) C  3             0.00028     0.92313
  129. RY ( 5) C  3             0.00022     1.07114
  130. RY ( 6) C  3             0.00008     2.34838
  131. RY ( 7) C  3             0.00002     2.34569
  132. RY ( 8) C  3             0.00001     1.96541
  133. RY ( 9) C  3             0.00000     2.16980
  134. RY ( 1) C  4             0.00695     1.41212
  135. RY ( 2) C  4             0.00431     1.10215
  136. RY ( 3) C  4             0.00137     0.92763
  137. RY ( 4) C  4             0.00096     1.39685
  138. RY ( 5) C  4             0.00075     1.89209
  139. RY ( 6) C  4             0.00020     2.02040
  140. RY ( 7) C  4             0.00012     2.19484
  141. RY ( 8) C  4             0.00006     2.34130
  142. RY ( 9) C  4             0.00001     2.38309
  143. RY ( 1) C  5             0.00516     1.31691
  144. RY ( 2) C  5             0.00279     0.88947
  145. RY ( 3) C  5             0.00082     1.55881
  146. RY ( 4) C  5             0.00043     1.21951
  147. RY ( 5) C  5             0.00022     1.17683
  148. RY ( 6) C  5             0.00010     2.38197
  149. RY ( 7) C  5             0.00003     2.42767
  150. RY ( 8) C  5             0.00001     2.18716
  151. RY ( 9) C  5             0.00000     2.12299
  152. RY ( 1) C  6             0.00486     1.34253
  153. RY ( 2) C  6             0.00230     0.80901
  154. RY ( 3) C  6             0.00060     1.97672
  155. RY ( 4) C  6             0.00043     0.77452
  156. RY ( 5) C  6             0.00020     1.13302
  157. RY ( 6) C  6             0.00009     2.42878
  158. RY ( 7) C  6             0.00002     2.41378
  159. RY ( 8) C  6             0.00000     2.32824
  160. RY ( 9) C  6             0.00000     1.88676
  161. RY ( 1) C  7             0.00507     1.34438
  162. RY ( 2) C  7             0.00211     0.82104
  163. RY ( 3) C  7             0.00069     2.00187
  164. RY ( 4) C  7             0.00034     0.77534
  165. RY ( 5) C  7             0.00016     1.13798
  166. RY ( 6) C  7             0.00010     2.40452
  167. RY ( 7) C  7             0.00002     2.42078
  168. RY ( 8) C  7             0.00000     2.13026
  169. RY ( 9) C  7             0.00000     2.08257
  170. RY ( 1) C  8             0.00677     1.36968
  171. RY ( 2) C  8             0.00336     0.81384
  172. RY ( 3) C  8             0.00082     0.89845
  173. RY ( 4) C  8             0.00058     1.15051
  174. RY ( 5) C  8             0.00049     1.82787
  175. RY ( 6) C  8             0.00013     2.42007
  176. RY ( 7) C  8             0.00002     2.24522
  177. RY ( 8) C  8             0.00002     2.11931
  178. RY ( 9) C  8             0.00001     2.32455
  179. RY ( 1) C  9             0.00967     1.18549
  180. RY ( 2) C  9             0.00373     0.96968
  181. RY ( 3) C  9             0.00172     0.96455
  182. RY ( 4) C  9             0.00139     1.31645
  183. RY ( 5) C  9             0.00076     1.99193
  184. RY ( 6) C  9             0.00044     2.37842
  185. RY ( 7) C  9             0.00038     2.06942
  186. RY ( 8) C  9             0.00019     2.23241
  187. RY ( 9) C  9             0.00002     2.39971
  188. RY ( 1) H 10             0.00068     0.64973
  189. RY ( 2) H 10             0.00009     2.30550
  190. RY ( 3) H 10             0.00004     2.59158
  191. RY ( 4) H 10             0.00002     3.09058
  192. RY ( 1) H 11             0.00072     0.69972
  193. RY ( 2) H 11             0.00012     2.34724
  194. RY ( 3) H 11             0.00004     2.63666
  195. RY ( 4) H 11             0.00001     3.12437
  196. RY ( 1) H 12             0.00049     0.67324
  197. RY ( 2) H 12             0.00010     2.31265
  198. RY ( 3) H 12             0.00004     2.60022
  199. RY ( 4) H 12             0.00002     3.09097
  200. RY ( 1) H 13             0.00121     0.71379
  201. RY ( 2) H 13             0.00010     2.32907
  202. RY ( 3) H 13             0.00005     2.67105
  203. RY ( 4) H 13             0.00002     3.09215
  204. RY ( 1) H 14             0.00110     0.72652
  205. RY ( 2) H 14             0.00011     2.37417
  206. RY ( 3) H 14             0.00006     2.74220
  207. RY ( 4) H 14             0.00003     3.11701
  208. RY ( 1) H 15             0.00071     0.70872
  209. RY ( 2) H 15             0.00011     2.34516
  210. RY ( 3) H 15             0.00004     2.63635
  211. RY ( 4) H 15             0.00001     3.11430
  212. RY ( 1) H 16             0.00126     0.73235
  213. RY ( 2) H 16             0.00011     2.35444
  214. RY ( 3) H 16             0.00005     2.68376
  215. RY ( 4) H 16             0.00002     3.13443
  216. RY ( 1)Au 17             0.01309     1.01513
  217. RY ( 2)Au 17             0.00861     0.32978
  218. RY ( 3)Au 17             0.00526     0.99224
  219. RY ( 4)Au 17             0.00268     1.24078
  220. RY ( 5)Au 17             0.00135     0.74834
  221. RY ( 6)Au 17             0.00110     1.35593
  222. RY ( 7)Au 17             0.00078     0.95179
  223. RY ( 8)Au 17             0.00054     3.71713
  224. RY ( 9)Au 17             0.00050     0.83145
  225. RY (10)Au 17             0.00027     1.14009
  226. RY (11)Au 17             0.00019     1.25083
  227. RY (12)Au 17             0.00015     0.51836
  228. RY (13)Au 17             0.00006     1.49974
  229. RY (14)Au 17             0.00005     1.87968
  230. RY (15)Au 17             0.00004     1.99171
  231. RY (16)Au 17             0.00003     2.04235
  232. RY (17)Au 17             0.00001     1.78021
  233. RY (18)Au 17             0.00001     1.92496
  234. RY (19)Au 17             0.00000     1.98515
  248. RY ( 1) C 19             0.00770     1.17399
  249. RY ( 2) C 19             0.00585     1.00437
  250. RY ( 3) C 19             0.00232     1.16503
  251. RY ( 4) C 19             0.00141     1.48717
  252. RY ( 5) C 19             0.00065     1.63182
  253. RY ( 6) C 19             0.00033     1.98049
  254. RY ( 7) C 19             0.00019     2.16702
  255. RY ( 8) C 19             0.00015     2.30667
  256. RY ( 9) C 19             0.00002     2.35632
  257. RY ( 1) N 20             0.01003     1.15755
  258. RY ( 2) N 20             0.00430     0.60869
  259. RY ( 3) N 20             0.00308     0.56942
  260. RY ( 4) N 20             0.00252     0.73406
  261. RY ( 5) N 20             0.00119     1.17727
  262. RY ( 6) N 20             0.00076     1.31045
  263. RY ( 7) N 20             0.00060     1.37543
  264. RY ( 8) N 20             0.00043     1.64774
  265. RY ( 9) N 20             0.00032     2.39637
  266. RY (10) N 20             0.00025     1.61180
  267. RY (11) N 20             0.00013     1.15608
  268. RY (12) N 20             0.00007     1.90730
  269. RY (13) N 20             0.00002     2.23548
  270. RY ( 1) C 21             0.00672     1.25859
  271. RY ( 2) C 21             0.00462     0.74491
  272. RY ( 3) C 21             0.00280     1.10288
  273. RY ( 4) C 21             0.00076     1.14782
  274. RY ( 5) C 21             0.00058     1.62682
  275. RY ( 6) C 21             0.00025     2.33791
  276. RY ( 7) C 21             0.00006     2.39185
  277. RY ( 8) C 21             0.00002     1.87013
  278. RY ( 9) C 21             0.00001     2.32227
  279. RY ( 1) H 22             0.00163     0.76550
  280. RY ( 2) H 22             0.00010     2.36069
  281. RY ( 3) H 22             0.00005     2.88955
  282. RY ( 4) H 22             0.00002     2.85049
  283. RY ( 1)Cl 23             0.00218     0.82496
  284. RY ( 2)Cl 23             0.00160     0.65545
  285. RY ( 3)Cl 23             0.00153     0.71808
  286. RY ( 4)Cl 23             0.00104     1.49312
  287. RY ( 5)Cl 23             0.00023     0.54252
  288. RY ( 6)Cl 23             0.00009     1.20138
  289. RY ( 7)Cl 23             0.00004     1.03843
  290. RY ( 8)Cl 23             0.00003     0.61126
  291. RY ( 9)Cl 23             0.00002     0.79711
  292. RY (10)Cl 23             0.00001     0.99950
  293. RY (11)Cl 23             0.00001     0.92864
  294. RY (12)Cl 23             0.00001     0.65042
  295. RY (13)Cl 23             0.00000     0.80331
  296. RY ( 1) C 24             0.01657     0.86461
  297. RY ( 2) C 24             0.00495     1.92867
  298. RY ( 3) C 24             0.00234     1.21713
  299. RY ( 4) C 24             0.00173     1.66338
  300. RY ( 5) C 24             0.00158     1.81840
  301. RY ( 6) C 24             0.00049     1.49736
  302. RY ( 7) C 24             0.00031     1.62559
  303. RY ( 8) C 24             0.00009     2.26637
  304. RY ( 9) C 24             0.00003     2.35868
  305. RY ( 1) O 25             0.00381     0.77212
  306. RY ( 2) O 25             0.00074     0.85982
  307. RY ( 3) O 25             0.00040     0.63299
  308. RY ( 4) O 25             0.00026     1.10697
  309. RY ( 5) O 25             0.00011     0.97490
  310. RY ( 6) O 25             0.00004     0.90786
  311. RY ( 7) O 25             0.00004     1.42091
  312. RY ( 8) O 25             0.00002     2.12891
  313. RY ( 9) O 25             0.00002     1.74143
  314. RY (10) O 25             0.00001     1.87308
  315. RY (11) O 25             0.00001     2.10808
  316. RY (12) O 25             0.00000     2.16247
  317. RY (13) O 25             0.00000     2.02002
          -------------------------------
                 Total Lewis  186.68871  ( 98.0751%)
           Valence non-Lewis    3.42608  (  1.7999%)
           Rydberg non-Lewis    0.23802  (  0.1250%)
          -------------------------------
               Total unit  1  190.35281  (100.0000%)
              Charge unit  1    0.64719

 Molecular unit  2  (Cl)
 ------ Lewis --------------------------------------
   14. CR ( 1)Cl 18             2.00000   -98.12813
   15. CR ( 2)Cl 18             1.99999   -13.01834
   16. CR ( 3)Cl 18             2.00000    -7.25914
   17. CR ( 4)Cl 18             2.00000    -7.25772
   18. CR ( 5)Cl 18             2.00000    -7.25616
   33. LP ( 1)Cl 18             1.99543    -0.67618  98(r),99(r),221(r),219(r)
   34. LP ( 2)Cl 18             1.99224    -0.38310  98(r),217(r),99(r),219(r)
                                                     103(r),180(r),220(r)
   35. LP ( 3)Cl 18             1.97884    -0.40120  104(r),98(r),103(r),99(r)
                                                     219(r),217(r),83(r),271(r)
                                                     216(r),223(r),222(r),100(r)
                                                     86(r),286(r),102(r),220(r)
                                                     258(r),257(r),225(r)
   36. LP ( 4)Cl 18             1.67573    -0.36802  98(r),223(r),99(r),235(g)
                                                     225(r),222(r),286(r),179(r)
                                                     226(r),219(r),218(r),221(r)
                                                     288(r),238(g),227(r),134(r)
                                                     291(r),170(r),283(r),240(g)
                                                     229(r),257(r),182(r),173(r)
                                                     289(r),147(r),285(r),258(r)
                                                     181(r),271(r),216(r),165(r)
                                                     284(r),224(r),228(r),290(r)
                                                     204(r),186(r),270(r),135(r)
                                                     152(r),156(r),100(r),268(r)
                                                     217(r),137(r),220(r),295(r)
                                                     299(r),251(r),103(r),230(r)
                                                     234(r),171(r),143(r),248(r)
                                                     310(r),161(r),93(r),178(r)
                                                     233(r),187(r),301(r),279(r)
                                                     273(r),84(r),111(r),151(r)
                                                     261(r),78(r),141(r),104(r)
                                                     83(r),287(r)
 ------ non-Lewis ----------------------------------
  235. RY ( 1)Cl 18             0.00180     1.19933
  236. RY ( 2)Cl 18             0.00125     0.73590
  237. RY ( 3)Cl 18             0.00097     0.61603
  238. RY ( 4)Cl 18             0.00061     0.85542
  239. RY ( 5)Cl 18             0.00016     0.55159
  240. RY ( 6)Cl 18             0.00006     1.41443
  241. RY ( 7)Cl 18             0.00004     0.75164
  242. RY ( 8)Cl 18             0.00003     0.65569
  243. RY ( 9)Cl 18             0.00002     0.87880
  244. RY (10)Cl 18             0.00001     0.92588
  245. RY (11)Cl 18             0.00001     0.75809
  246. RY (12)Cl 18             0.00000     0.86631
  247. RY (13)Cl 18             0.00000     0.83955
          -------------------------------
                 Total Lewis   17.64222  ( 99.9719%)
           Valence non-Lewis    0.00000  (  0.0000%)
           Rydberg non-Lewis    0.00497  (  0.0281%)
          -------------------------------
               Total unit  2   17.64719  (100.0000%)
              Charge unit  2   -0.64719

 $CHOOSE
   LONE 17 4 18 4 20 1 23 3 25 2 END
   BOND S 1 2 S 1 13 D 1 19 D 2 3 S 2 10 S 3 12 S 3 21 S 4 5 D 4 9 S 4 24 D 5 6
        S 5 16 S 6 7 S 6 11 D 7 8 S 7 15 S 8 9 S 8 14 S 9 17 S 17 23 S 19 20
        S 19 24 D 20 21 S 21 22 D 24 25 END
 $END

 Checkpoint orbital transformation(s) sent to host program

 NBO analysis completed in 2.67 CPU seconds (3 wall seconds)
 Maximum scratch memory used by NBO was 1290770 words (9.85 MB)
 Maximum scratch memory used by G16NBO was 161555 words (1.23 MB)

 Opening RunExU unformatted file "/home/shared/scratch/Gau-74588.EUF"
 Read unf file /home/shared/scratch/Gau-74588.EUF:
 Label Gaussian matrix elements                                         IVers= 2 NLab= 2 Version=ES64L-G16RevC.01
 Title continue calc                                                   
 NAtoms=    25 NBasis=   317 NBsUse=   317 ICharg=     0 Multip=     1 NE=   148 Len12L=8 Len4L=8 IOpCl= 0 ICGU=111
 GAUSSIAN SCALARS                    NI= 1 NR= 1 NTot=       1 LenBuf=    2 NRI=1 N=    1000
 ALPHA ORBITAL ENERGIES              NI= 0 NR= 1 NTot=     317 LenBuf= 4000 NRI=1 N=     317
 ALPHA MO COEFFICIENTS               NI= 0 NR= 1 NTot=  100489 LenBuf= 4000 NRI=1 N=     317     317
 Store file  10524 Len=  100489.
 NPA CHARGES                         NI= 0 NR= 1 NTot=      25 LenBuf= 4000 NRI=1 N=      25
 Recovered energy= -1647.72704167     dipole=      0.828228347026      3.327325652499     -1.874961066071
 Leave Link  612 at Tue Mar 14 09:25:58 2023, MaxMem= 10737418240 cpu:             179.8 elap:               4.6
 (Enter /home/support/apps/apps/gaussian/g16/l9999.exe)
 Unable to Open any file for archive entry.
 1\1\GINC-DALTON-N06\SP\RwB97XD\Gen\C12H8Au1Cl2N1O1\MUMA\14-Mar-2023\0\
 \#p guess=read rwb97xd/gen pseudo=read scf=xqc pop=nbo7read output=wfn
 \\continue calc\\0,1\C,0,2.186212,2.808852,0.22709\C,0,3.378545,2.5415
 8,-0.432809\C,0,3.540383,1.310483,-1.053495\C,0,-1.388206,1.682279,0.2
 59595\C,0,-2.477433,2.564015,0.188057\C,0,-3.637471,2.187469,-0.467516
 \C,0,-3.718638,0.923217,-1.04668\C,0,-2.660667,0.024432,-0.941591\C,0,
 -1.492293,0.39919,-0.28411\H,0,4.167075,3.285665,-0.463668\H,0,-4.4732
 8,2.875697,-0.532441\H,0,4.447202,1.055933,-1.587989\H,0,1.998455,3.75
 0104,0.728543\H,0,-2.763201,-0.973361,-1.349667\H,0,-4.619581,0.622217
 ,-1.571826\H,0,-2.380204,3.545236,0.640365\Au,0,0.027587,-0.905123,0.0
 08088\Cl,0,1.877868,-2.410964,0.366754\C,0,1.186366,1.84485,0.246592\N
 ,0,1.373228,0.641846,-0.324905\C,0,2.52488,0.371967,-0.962454\H,0,2.62
 9045,-0.627033,-1.36553\Cl,0,-1.486923,-2.58067,0.462896\C,0,-0.147471
 ,2.237018,0.854118\O,0,-0.151094,3.120373,1.6891\\Version=ES64L-G16Rev
 C.01\State=1-A\HF=-1647.7270417\RMSD=8.246e-09\Dipole=0.8282317,3.3273
 248,-1.8749611\Quadrupole=16.2881698,-10.541294,-5.7468758,8.4916898,-
 1.8304101,-0.8439441\PG=C01 [X(C12H8Au1Cl2N1O1)]\\@
 The archive entry for this job was punched.

 Writing a WFN file to "AuC=Ob.wfn"


 THOUGH I SPEAK WITH THE TONGUES OF MEN AND OF ANGELS, 
 AND HAVE NOT LOVE,
 I AM BECOME AS SOUNDING BRASS, A TINKLING CYMBAL.
 AND THOUGH I HAVE THE GIFT OF PROPHECY,
 AND UNDERSTAND ALL MYSTERIES, AND ALL KNOWLEDGE.
 AND THOUGH I HAVE ALL FAITH, SO THAT I COULD REMOVE MOUNTAINS,
 AND HAVE NOT LOVE, I AM NOTHING.
 AND THOUGH I BESTOW ALL MY GOODS TO FEED THE POOR,
 AND THOUGH I GIVE MY BODY TO BE BURNED,
 AND HAVE NOT LOVE IT PROFITETH ME NOTHING.
 LOVE SUFFERETH LONG, AND IS KIND,
 LOVE ENVIETH NOT,
 LOVE VAUNTETH NOT ITSELF, IS NOT PUFFED UP,
 DOTH NOT BEHAVE ITSELF UNSEEMLY, SEEKETH NOT HER OWN,
 IS NOT EASILY PROVOKED, THINKETH NO EVIL,
 REJOICETH NOT IN INIQUITY, BUT REJOICETH IN THE TRUTH,
 BEARETH ALL THINGS, BELIEVETH ALL THINGS,
 HOPETH ALL THINGS, ENDURETH ALL THINGS.
 LOVE NEVER FAILETH, BUT WHETHER THERE BE PROPHECIES, THEY SHALL FAIL, 
 WHETHER THERE BE TONGUES, THEY SHALL CEASE,
 WHETHER THERE BE KNOWLEDGE, IT SHALL VANISH AWAY.
 FOR WE KNOW IN PART, AND WE PROPHESY IN PART.
 BUT WHEN THAT WHICH IS PERFECT IS COME, THEN THAT WHICH IS IN PART 
 SHALL BE DONE AWAY. 
 WHEN I WAS A CHILD, I SPAKE AS A CHILD, I UNDERSTOOD AS A CHILD, 
 I THOUGHT AS A CHILD.
 BUT WHEN I BECAME A MAN, I PUT AWAY CHILDISH THINGS.
 FOR NOW WE SEE THROUGH A GLASS, DARKLY, BUT THEN FACE TO FACE.
 NOW I KNOW IN PART. BUT THEN SHALL I KNOW EVEN AS ALSO I AM KNOWN.
 AND NOW ABIDETH FAITH, HOPE AND LOVE, THESE THREE.
 BUT THE GREATEST OF THESE IS LOVE.

                     I CORINTHIANS 13
 Job cpu time:       0 days  0 hours  6 minutes  7.8 seconds.
 Elapsed time:       0 days  0 hours  0 minutes  9.7 seconds.
 File lengths (MBytes):  RWF=     71 Int=      0 D2E=      0 Chk=     10 Scr=      2
 Normal termination of Gaussian 16 at Tue Mar 14 09:25:59 2023.
